#  __  _  _
# | _ |_)|_||  |
# |__||  | ||/\| - 24.1.0

User:   s194113@n-62-29-28
Date:   Wed May  1 13:54:25 2024
Arch:   x86_64
Pid:    30541
CWD:    /work3/s194113/10302/10302_NM/MnI2_Supercell
Python: 3.8.5
gpaw:   /zhome/87/8/147075/venv-name/gpaw/gpaw (10808453a8)
_gpaw:  /zhome/87/8/147075/venv-name/gpaw/
        _gpaw.cpython-38-x86_64-linux-gnu.so (10808453a8)
ase:    /zhome/87/8/147075/venv-name/ase/ase (version 3.23.0b1-c36115a2db)
numpy:  /zhome/87/8/147075/venv-name/lib/python3.8/site-packages/numpy (version 1.24.4)
scipy:  /zhome/87/8/147075/venv-name/lib/python3.8/site-packages/scipy (version 1.10.1)
libxc:  4.3.4
units:  Angstrom and eV
cores: 12
OpenMP: False
OMP_NUM_THREADS: 1

---
input parameters:
  kpts: 
    density: 6.0
    gamma: True
  magmoms: [[4.322235, 1.1e-05, -0.0], [0, 0, 0], [0, 0, 0], [-2.161117499999999, 3.7431653111262335, 0], [0, 0, 0], [0, 0, 0], [-2.161117499999999, -3.7431653111262335, 0], [0, 0, 0], [0, 0, 0]]
  mixer: 
    backend: 'pulay'
    beta: 0.05
    method: 'sum'
    nmaxold: 5
    weight: 100
  mode: 
    name: 'pw'
    ecut: 600.0
  parallel: 
    kpt: None
    domain: 1
    band: 1
    order: 'kdb'
    stridebands: False
    augment_grids: False
    sl_auto: False
    sl_default: None
    sl_diagonalize: None
    sl_inverse_cholesky: None
    sl_lcao: None
    sl_lrtddft: None
    use_elpa: False
    elpasolver: '2stage'
    buffer_size: None
    gpu: False
  symmetry: 
    point_group: False
    time_reversal: False
  xc: 
    name: 'LDA'

#                                
#                                
#                                
#                                
#                                
#           I         I          
#                       Mn       
#              I                 
#               Mn               
#                 I              
#        Mn                      
#          I         I           
#                                
#                                
#                                
#                                
#                                

atoms: [  # symbols, positions [Ang] and initial magnetic moments
  [ Mn, [   0.000000,    0.000000,    7.649535], [ 4.322,  0.000, -0.000]], # 0
  [  I, [   2.082858,    1.202539,    9.299069], [ 0.000,  0.000,  0.000]], # 1
  [  I, [   0.000000,    2.405077,    6.000000], [ 0.000,  0.000,  0.000]], # 2
  [ Mn, [   2.082858,    3.607616,    7.649535], [-2.161,  3.743,  0.000]], # 3
  [  I, [   4.165716,    4.810154,    9.299069], [ 0.000,  0.000,  0.000]], # 4
  [  I, [   2.082858,    6.012693,    6.000000], [ 0.000,  0.000,  0.000]], # 5
  [ Mn, [   4.165716,    7.215232,    7.649535], [-2.161, -3.743,  0.000]], # 6
  [  I, [   0.000000,    4.810154,    9.299069], [ 0.000,  0.000,  0.000]], # 7
  [  I, [   4.165716,    2.405077,    6.000000], [ 0.000,  0.000,  0.000]]] # 8

cell: [  # Ang
#     x            y            z
  [   6.248574,    3.607616,    0.000000],
  [   0.000000,    7.215232,    0.000000],
  [   0.000000,    0.000000,   15.299069]]

periodic: [True      , True      , False     ]
lengths:  [  7.215232,   7.215232,  15.299069]  # Ang
angles:   [ 90.000000,  90.000000,  60.000000]

symmetry:
  number of symmetries: 1
  rotations: [
    [[ 1,  0,  0], [ 0,  1,  0], [ 0,  0,  1]]]

bz sampling:
  number of bz points: 49
  number of ibz points: 49
  monkhorst-pack size: [7, 7, 1]
  monkhorst-pack shift: [0, 0, 0]
  points and weights: [
    [[ -0.42857143,  -0.42857143,   0.00000000], 0.02040816],  # 0
    [[ -0.42857143,  -0.28571429,   0.00000000], 0.02040816],  # 1
    [[ -0.42857143,  -0.14285714,   0.00000000], 0.02040816],  # 2
    [[ -0.42857143,   0.00000000,   0.00000000], 0.02040816],  # 3
    [[ -0.42857143,   0.14285714,   0.00000000], 0.02040816],  # 4
    [[ -0.42857143,   0.28571429,   0.00000000], 0.02040816],  # 5
    [[ -0.42857143,   0.42857143,   0.00000000], 0.02040816],  # 6
    [[ -0.28571429,  -0.42857143,   0.00000000], 0.02040816],  # 7
    [[ -0.28571429,  -0.28571429,   0.00000000], 0.02040816],  # 8
    [[ -0.28571429,  -0.14285714,   0.00000000], 0.02040816],  # 9
    # ...
    [[  0.42857143,   0.42857143,   0.00000000], 0.02040816]]  # 48

plane wave coefficients: 23061
cutoff: 600.0 eV

spin-components: 4  # (non-collinear spins)
bands: 114
valence electrons: 87.0
spin-degeneracy: 1
dtype: complex128

memory:
    wave functions: 4_111_117_248  # bytes  (342_593_104 per core)

parallelization:
    kpt:    12
    domain: 1
    band:   1

density:
  components: 4
  grid points: [42 42 90]
  charge: 0.0  # |e|

potential:
  grid points: [42 42 90]

species:
  Mn:
    name: Manganese
    id: 0d715a8018be061a6e9ea6f2d364ac92
    Z: 25.0
    valence: 15
    core: 10
    charge: 0.0
    file: /zhome/86/d/1666/PAW/gpaw-setups-0.9.20000/Mn.LDA.gz
    compensation charges: {type: gauss,
                           rc: 0.38,
                           lmax: 2}
    cutoffs: {filter: 2.14,
              core: 0.86}
    valence states:
      #              energy  rcut
      - 3s(2.00)   -85.387   1.275
      - 4s(2.00)    -5.282   1.275
      - 3p(6.00)   -54.493   1.281
      - 4p(0.00)    -1.471   1.281
      - 3d(5.00)    -7.009   1.138
      -  d          20.203   1.138
  
    # Using partial waves for Mn as LCAO basis

  I:
    name: Iodine
    id: b559721c0c096a7b4c8fc0e0f4de5cf4
    Z: 53.0
    valence: 7
    core: 46
    charge: 0.0
    file: /zhome/86/d/1666/PAW/gpaw-setups-0.9.20000/I.LDA.gz
    compensation charges: {type: gauss,
                           rc: 0.37,
                           lmax: 2}
    cutoffs: {filter: 2.06,
              core: 2.90}
    valence states:
      #              energy  rcut
      - 5s(2.00)   -17.626   1.164
      - 5p(5.00)    -7.241   1.164
      -  s           9.585   1.164
      -  p          19.970   1.164
      -  d           0.000   1.164
  
    # Using partial waves for I as LCAO basis

Reference energy: -1254667.327294  # eV

eigensolver:
  name: 'Davidson'
  niter: 2
  converge_bands: 'occupied'
Density mixing:
  Method: sum
  Backend: pulay
  Linear mixing parameter: 0.05
  old densities: 5
  Damping of long wavelength oscillations: 100
occupation numbers:
  Fermi-Dirac:
    width: 0.1000  # eV
  

poisson solver:
  ecut: 4800.0  # eV

xc functional:
  name: None

convergence criteria:
- Maximum [total energy] change in last 3 cyles: 0.0005 eV / valence electron
- Maximum integral of absolute [dens]ity change: 0.0001 electrons / valence electron
- Maximum integral of absolute [eigenst]ate change: 4e-08 eV^2 / valence electron
maximum number of iterations: 333

#      iter     time        total  log10-change:
#                          energy   eigst   dens
# iter:   1 13:56:37   -45.729377                  +0.0,+0.0,+0.0
# iter:   2 13:57:43   -45.590419   -0.67  -1.49   +0.0,+0.0,-0.0
# iter:   3 13:58:48   -45.373092   -1.00  -1.51   +0.0,+0.0,-0.0
# iter:   4 13:59:53   -45.375510   -1.27  -1.58   +0.0,+0.0,-0.0
# iter:   5 14:00:58   -45.487911   -1.47  -1.75   +0.0,+0.0,-0.0
# iter:   6 14:02:03   -45.463130   -1.79  -2.32   +0.0,+0.0,-0.0
# iter:   7 14:03:09   -45.424859   -1.92  -2.43   -0.0,+0.0,+0.0
# iter:   8 14:04:15   -45.431879c  -2.26  -2.70   -0.0,+0.0,+0.0
# iter:   9 14:05:20   -45.427551c  -2.41  -2.62   +0.0,+0.0,+0.0
# iter:  10 14:06:26   -45.425448c  -2.74  -3.12   -0.0,+0.0,-0.0
# iter:  11 14:07:32   -45.425469c  -2.94  -3.38   -0.0,+0.0,+0.0
# iter:  12 14:08:37   -45.425614c  -3.13  -3.49   -0.0,+0.0,-0.0
# iter:  13 14:09:43   -45.427214c  -3.24  -3.56   -0.0,+0.0,-0.0
# iter:  14 14:10:49   -45.425772c  -3.44  -3.30   -0.0,+0.0,+0.0
# iter:  15 14:11:54   -45.425767c  -3.66  -3.69   -0.0,+0.0,+0.0
# iter:  16 14:12:59   -45.425833c  -3.82  -3.82   -0.0,+0.0,-0.0
# iter:  17 14:14:04   -45.425823c  -3.98  -3.93   -0.0,+0.0,-0.0
# iter:  18 14:15:12   -45.425815c  -4.13  -4.02c  -0.0,+0.0,+0.0
# iter:  19 14:23:41   -45.425820c  -4.29  -4.52c  -0.0,+0.0,+0.0
# iter:  20 14:32:12   -45.425822c  -4.44  -4.57c  -0.0,+0.0,+0.0
# iter:  21 14:40:42   -45.425824c  -4.59  -4.60c  -0.0,+0.0,+0.0
# iter:  22 14:49:09   -45.425827c  -4.74  -4.63c  -0.0,+0.0,+0.0
# iter:  23 14:57:36   -45.425828c  -4.88  -4.64c  -0.0,+0.0,+0.0
# iter:  24 15:06:05   -45.425828c  -5.02  -4.61c  -0.0,+0.0,+0.0
# iter:  25 15:14:53   -45.425828c  -5.18  -4.69c  -0.0,+0.0,+0.0
# iter:  26 15:23:51   -45.425828c  -5.33  -4.72c  -0.0,+0.0,+0.0
# iter:  27 15:32:35   -45.425829c  -5.48  -4.89c  -0.0,+0.0,+0.0
# iter:  28 15:42:05   -45.425829c  -5.61  -4.93c  -0.0,+0.0,+0.0
# iter:  29 15:51:51   -45.425829c  -5.75  -4.96c  -0.0,+0.0,+0.0
# iter:  30 16:02:07   -45.425828c  -5.88  -5.01c  -0.0,+0.0,+0.0
# iter:  31 16:12:16   -45.425828c  -6.03  -5.22c  -0.0,+0.0,+0.0
# iter:  32 16:21:48   -45.425828c  -6.16  -5.34c  -0.0,+0.0,+0.0
# iter:  33 16:31:25   -45.425829c  -6.29  -5.29c  -0.0,+0.0,+0.0
# iter:  34 16:41:58   -45.425829c  -6.44  -5.56c  -0.0,+0.0,+0.0
# iter:  35 16:52:21   -45.425829c  -6.57  -5.61c  -0.0,+0.0,+0.0
# iter:  36 17:02:48   -45.425829c  -6.73  -5.79c  -0.0,+0.0,+0.0
# iter:  37 17:12:12   -45.425829c  -6.86  -5.85c  -0.0,+0.0,+0.0
# iter:  38 17:21:44   -45.425829c  -7.00  -5.90c  -0.0,+0.0,+0.0
# iter:  39 17:31:50   -45.425829c  -7.13  -5.99c  -0.0,+0.0,+0.0
# iter:  40 17:40:46   -45.425829c  -7.26  -6.03c  -0.0,+0.0,+0.0
# iter:  41 17:49:03   -45.425829c  -7.39  -6.18c  -0.0,+0.0,+0.0
# iter:  42 17:57:21   -45.425829c  -7.52c -6.21c  -0.0,+0.0,+0.0
scf_steps: 42
energies:  # eV
  coulomb:         -37.364658
  zero:              0.280111
  xc:              -51.412595
  external:          0.000000
  kinetic:          43.072687
  spinorbit:         0.000000
  entropy:          -0.002750
  total:           -45.427204
  extrapolated:    -45.425829

dipole moment: [-65.553378, 28.520287, 0.001057]  # |e|*Ang

total magnetic moment: [-0.000239, 0.000012, 0.000000]

local magnetic moments: [
  [ 4.322223,  0.000011, -0.000000],  # Mn 0
  [-0.000001, -0.000000, -0.000000],  # I  1
  [-0.000002,  0.000000,  0.000000],  # I  2
  [-2.161216,  3.743095,  0.000000],  # Mn 3
  [-0.000001,  0.000000,  0.000000],  # I  4
  [-0.000001, -0.000000,  0.000000],  # I  5
  [-2.161216, -3.743095,  0.000000],  # Mn 6
  [-0.000002,  0.000000, -0.000000],  # I  7
  [-0.000001,  0.000000,  0.000000]]  # I  8


Fermi level: -1.215 eV

kpt = [-0.429, -0.429, 0.000], weight = 0.020:
  Band      eig [eV]   occ [0-1]
     0       -82.167       1.000
   ...
    79        -3.130       1.000
    80        -3.032       1.000
    81        -2.240       1.000
    82        -2.184       1.000
    83        -2.100       1.000
    84        -2.098       1.000
    85        -2.041       1.000
    86        -1.981       1.000
    87        -0.495       0.001
    88        -0.463       0.001
    89        -0.432       0.000
    90        -0.322       0.000
    91        -0.245       0.000
    92        -0.239       0.000
    93        -0.202       0.000
    94        -0.186       0.000
   ...
   113         3.695       0.000

kpt = [-0.429, -0.286, 0.000], weight = 0.020:
  Band      eig [eV]   occ [0-1]
     0       -82.167       1.000
   ...
    79        -3.076       1.000
    80        -3.005       1.000
    81        -2.256       1.000
    82        -2.224       1.000
    83        -2.202       1.000
    84        -2.012       1.000
    85        -1.999       1.000
    86        -1.963       0.999
    87        -0.440       0.000
    88        -0.404       0.000
    89        -0.398       0.000
    90        -0.354       0.000
    91        -0.310       0.000
    92        -0.257       0.000
    93        -0.166       0.000
    94        -0.160       0.000
   ...
   113         3.626       0.000

kpt = [-0.429, -0.143, 0.000], weight = 0.020:
  Band      eig [eV]   occ [0-1]
     0       -82.167       1.000
   ...
    79        -3.076       1.000
    80        -3.005       1.000
    81        -2.256       1.000
    82        -2.224       1.000
    83        -2.202       1.000
    84        -2.012       1.000
    85        -1.999       1.000
    86        -1.963       0.999
    87        -0.440       0.000
    88        -0.404       0.000
    89        -0.398       0.000
    90        -0.354       0.000
    91        -0.310       0.000
    92        -0.257       0.000
    93        -0.166       0.000
    94        -0.160       0.000
   ...
   113         3.626       0.000
(only showing first 3 out of 49 k-points)

Gap: 1.426 eV
Transition (v -> c):
  (s=0, k=17, n=86, [-0.14, 0.00, 0.00]) -> (s=0, k=21, n=87, [0.00, -0.43, 0.00])
# Writing to SC/gsq-sc.gpw (mode='')

---

timing:  # [seconds]
  Total: 23156.050  # ━━━━━━━━━━━━━━━━━━━━━━━━━━━━━━━━━━━━━━━━━━━━━━━━━━━━━━━
  Init:    464.565  # ━
  SCF:   22691.259  # ━━━━━━━━━━━━━━━━━━━━━━━━━━━━━━━━━━━━━━━━━━━━━━━━━━━━━━

Max RSS: 5216.742  # MiB
# MiB
