#  __  _  _
# | _ |_)|_||  |
# |__||  | ||/\| - 24.1.0

User:   s194099@n-62-29-26
Date:   Wed Apr 17 15:32:26 2024
Arch:   x86_64
Pid:    20525
CWD:    /zhome/84/5/147090/10302_NM/MnI2
Python: 3.8.5
gpaw:   /zhome/84/5/147090/venv1/gpaw/gpaw (10808453a8)
_gpaw:  /zhome/84/5/147090/venv1/gpaw/
        _gpaw.cpython-38-x86_64-linux-gnu.so (10808453a8)
ase:    /zhome/84/5/147090/venv1/ase/ase (version 3.23.0b1-c36115a2db)
numpy:  /zhome/84/5/147090/venv1/lib/python3.8/site-packages/numpy (version 1.24.4)
scipy:  /zhome/84/5/147090/venv1/lib/python3.8/site-packages/scipy (version 1.10.1)
libxc:  4.3.4
units:  Angstrom and eV
cores: 12
OpenMP: False
OMP_NUM_THREADS: 1

---
input parameters:
  kpts: 
    density: 6.0
    gamma: True
  magmoms: [[1, 0, 0], [0, 0, 0], [0, 0, 0]]
  mixer: 
    backend: 'pulay'
    beta: 0.05
    method: 'sum'
    nmaxold: 5
    weight: 100
  mode: 
    name: 'pw'
    ecut: 600
    qspiral: array([0.45, 0.  , 0.  ])
  parallel: 
    kpt: None
    domain: 1
    band: 1
    order: 'kdb'
    stridebands: False
    augment_grids: False
    sl_auto: False
    sl_default: None
    sl_diagonalize: None
    sl_inverse_cholesky: None
    sl_lcao: None
    sl_lrtddft: None
    use_elpa: False
    elpasolver: '2stage'
    buffer_size: None
    gpu: False
  symmetry: 
    point_group: False
    time_reversal: False
  xc: 
    name: 'LDA'

#                        
#                        
#                        
#                        
#                        
#              I         
#                        
#        Mn              
#          I             
#                        
#                        
#                        
#                        
#                        

atoms: [  # symbols, positions [Ang] and initial magnetic moments
  [ Mn, [   0.000000,    0.000000,    5.513573], [ 1.000,  0.000,  0.000]], # 0
  [  I, [   1.984831,    1.145943,    7.027147], [ 0.000,  0.000,  0.000]], # 1
  [  I, [  -0.000000,    2.291886,    4.000000], [ 0.000,  0.000,  0.000]]] # 2

cell: [  # Ang
#     x            y            z
  [   3.969662,    0.000000,    0.000000],
  [  -1.984831,    3.437828,    0.000000],
  [   0.000000,   -0.000000,   11.027147]]

periodic: [True      , True      , False     ]
lengths:  [  3.969662,   3.969662,  11.027147]  # Ang
angles:   [ 90.000000,  90.000000, 120.000000]

symmetry:
  number of symmetries: 1
  rotations: [
    [[ 1,  0,  0], [ 0,  1,  0], [ 0,  0,  1]]]

bz sampling:
  number of bz points: 121
  number of ibz points: 121
  monkhorst-pack size: [11, 11, 1]
  monkhorst-pack shift: [0, 0, 0]
  points and weights: [
    [[ -0.45454545,  -0.45454545,   0.00000000], 0.00826446],  # 0
    [[ -0.45454545,  -0.36363636,   0.00000000], 0.00826446],  # 1
    [[ -0.45454545,  -0.27272727,   0.00000000], 0.00826446],  # 2
    [[ -0.45454545,  -0.18181818,   0.00000000], 0.00826446],  # 3
    [[ -0.45454545,  -0.09090909,   0.00000000], 0.00826446],  # 4
    [[ -0.45454545,   0.00000000,   0.00000000], 0.00826446],  # 5
    [[ -0.45454545,   0.09090909,   0.00000000], 0.00826446],  # 6
    [[ -0.45454545,   0.18181818,   0.00000000], 0.00826446],  # 7
    [[ -0.45454545,   0.27272727,   0.00000000], 0.00826446],  # 8
    [[ -0.45454545,   0.36363636,   0.00000000], 0.00826446],  # 9
    # ...
    [[  0.45454545,   0.45454545,   0.00000000], 0.00826446]]  # 120

plane wave coefficients: 5038
cutoff: 600.0 eV

spin-components: 4  # (non-collinear spins)
bands: 42
valence electrons: 29.0
spin-degeneracy: 1
dtype: complex128

memory:
    wave functions: 817_673_472  # bytes  (68_139_456 per core)

parallelization:
    kpt:    12
    domain: 1
    band:   1

density:
  components: 4
  grid points: [24 24 63]
  charge: 0.0  # |e|

potential:
  grid points: [24 24 63]

species:
  Mn:
    name: Manganese
    id: 0d715a8018be061a6e9ea6f2d364ac92
    Z: 25.0
    valence: 15
    core: 10
    charge: 0.0
    file: /zhome/86/d/1666/PAW/gpaw-setups-0.9.20000/Mn.LDA.gz
    compensation charges: {type: gauss,
                           rc: 0.38,
                           lmax: 2}
    cutoffs: {filter: 2.14,
              core: 0.86}
    valence states:
      #              energy  rcut
      - 3s(2.00)   -85.387   1.275
      - 4s(2.00)    -5.282   1.275
      - 3p(6.00)   -54.493   1.281
      - 4p(0.00)    -1.471   1.281
      - 3d(5.00)    -7.009   1.138
      -  d          20.203   1.138
  
    # Using partial waves for Mn as LCAO basis

  I:
    name: Iodine
    id: b559721c0c096a7b4c8fc0e0f4de5cf4
    Z: 53.0
    valence: 7
    core: 46
    charge: 0.0
    file: /zhome/86/d/1666/PAW/gpaw-setups-0.9.20000/I.LDA.gz
    compensation charges: {type: gauss,
                           rc: 0.37,
                           lmax: 2}
    cutoffs: {filter: 2.06,
              core: 2.90}
    valence states:
      #              energy  rcut
      - 5s(2.00)   -17.626   1.164
      - 5p(5.00)    -7.241   1.164
      -  s           9.585   1.164
      -  p          19.970   1.164
      -  d           0.000   1.164
  
    # Using partial waves for I as LCAO basis

Reference energy: -418222.442431  # eV

eigensolver:
  name: 'Davidson'
  niter: 2
  converge_bands: 'occupied'
Density mixing:
  Method: sum
  Backend: pulay
  Linear mixing parameter: 0.05
  old densities: 5
  Damping of long wavelength oscillations: 100
occupation numbers:
  Fermi-Dirac:
    width: 0.1000  # eV
  

poisson solver:
  ecut: 4800.0  # eV

xc functional:
  name: None

convergence criteria:
- Maximum [total energy] change in last 3 cyles: 0.0005 eV / valence electron
- Maximum integral of absolute [dens]ity change: 0.0001 electrons / valence electron
- Maximum integral of absolute [eigenst]ate change: 4e-08 eV^2 / valence electron
maximum number of iterations: 333

#      iter     time        total  log10-change:
#                          energy   eigst   dens
# iter:   1 15:32:48   -15.645088                  +1.0,+0.0,+0.0
# iter:   2 15:33:01   -14.400031   -0.20  -1.05   +0.9,-0.0,-0.0
# iter:   3 15:33:13   -14.159771   -0.79  -1.32   +1.0,-0.0,+0.0
# iter:   4 15:33:26   -14.372937   -0.86  -1.48   +1.2,-0.0,-0.0
# iter:   5 15:33:39   -14.229891   -1.80  -1.61   +1.5,-0.0,-0.0
# iter:   6 15:33:52   -14.228422   -1.38  -1.72   +1.7,-0.0,-0.0
# iter:   7 15:34:04   -14.328569   -2.35  -2.07   +1.8,-0.0,-0.0
# iter:   8 15:34:17   -14.363662   -2.68  -1.86   +2.0,-0.0,-0.0
# iter:   9 15:34:30   -14.387395   -2.72  -1.74   +2.1,-0.0,+0.0
# iter:  10 15:34:42   -14.367276   -3.54  -1.74   +2.1,-0.0,-0.0
# iter:  11 15:34:55   -14.492014   -3.14  -1.74   +2.3,+0.0,+0.0
# iter:  12 15:35:08   -14.676606   -2.42  -1.71   +2.7,+0.0,+0.0
# iter:  13 15:35:21   -14.719384   -1.93  -1.78   +2.8,+0.0,-0.0
# iter:  14 15:35:33   -14.887993   -2.37  -1.99   +3.1,+0.0,-0.0
# iter:  15 15:35:46   -14.780226   -2.01  -2.06   +2.9,+0.0,-0.0
# iter:  16 15:35:59   -14.762067   -3.53  -1.86   +2.9,+0.0,+0.0
# iter:  17 15:36:11   -15.084750   -1.84  -1.85   +3.6,+0.0,-0.0
# iter:  18 15:36:24   -15.085769   -2.14  -2.28   +3.7,+0.0,-0.0
# iter:  19 15:36:37   -15.110203   -3.43  -2.27   +3.7,+0.0,-0.0
# iter:  20 15:36:50   -15.109086   -3.89  -2.30   +3.8,+0.0,-0.0
# iter:  21 15:37:02   -15.142738   -3.72  -2.33   +3.9,+0.0,-0.0
# iter:  22 15:37:15   -15.163696   -3.44  -2.47   +4.0,+0.0,-0.0
# iter:  23 15:37:28   -15.171213   -3.86  -2.57   +4.1,+0.0,-0.0
# iter:  24 15:37:41   -15.175118c  -4.34  -2.61   +4.2,+0.0,-0.0
# iter:  25 15:37:54   -15.177858c  -4.12  -2.68   +4.2,+0.0,-0.0
# iter:  26 15:38:06   -15.176497c  -4.02  -2.77   +4.2,+0.0,-0.0
# iter:  27 15:38:19   -15.176180c  -4.87  -2.90   +4.2,+0.0,-0.0
# iter:  28 15:38:32   -15.175661c  -4.21  -2.99   +4.2,+0.0,-0.0
# iter:  29 15:38:45   -15.175711c  -5.25  -3.12   +4.2,+0.0,-0.0
# iter:  30 15:38:57   -15.176454c  -4.88  -3.18   +4.2,+0.0,-0.0
# iter:  31 15:39:10   -15.176514c  -5.36  -3.38   +4.2,+0.0,-0.0
# iter:  32 15:39:23   -15.176482c  -5.86  -3.47   +4.2,+0.0,-0.0
# iter:  33 15:39:36   -15.176433c  -5.74  -3.54   +4.2,+0.0,-0.0
# iter:  34 15:39:48   -15.176356c  -5.78  -3.62   +4.2,+0.0,-0.0
# iter:  35 15:40:01   -15.176332c  -6.64  -4.05c  +4.2,+0.0,-0.0
# iter:  36 15:40:14   -15.176256c  -6.43  -4.10c  +4.2,+0.0,-0.0
# iter:  37 15:40:27   -15.176271c  -7.21  -4.24c  +4.2,+0.0,-0.0
# iter:  38 15:40:39   -15.176286c  -7.33  -4.29c  +4.2,+0.0,-0.0
# iter:  39 15:40:52   -15.176286c  -7.35  -4.44c  +4.2,+0.0,-0.0
# iter:  40 15:41:05   -15.176297c  -7.06  -4.57c  +4.2,+0.0,-0.0
# iter:  41 15:41:18   -15.176305c  -7.88c -4.91c  +4.2,+0.0,-0.0
scf_steps: 41
energies:  # eV
  coulomb:         -24.852932
  zero:              0.084155
  xc:              -20.360574
  external:          0.000000
  kinetic:          29.958562
  spinorbit:         0.000000
  entropy:          -0.011031
  total:           -15.181820
  extrapolated:    -15.176305

dipole moment: [-4.405975, -8.227121, -6.743334]  # |e|*Ang

total magnetic moment: [4.222937, 0.004337, -0.000000]

local magnetic moments: [
  [ 4.128256, -0.000000, -0.000000],  # Mn 0
  [-0.024501, -0.017509, -0.000000],  # I  1
  [ 0.028712, -0.009080, -0.000000]]  # I  2


Fermi level: 1.185 eV

kpt = [-0.455, -0.455, 0.000], weight = 0.008:
  Band      eig [eV]   occ [0-1]
     0       -79.589       1.000
   ...
    21        -2.089       1.000
    22        -1.959       1.000
    23        -1.553       1.000
    24        -1.446       1.000
    25        -1.266       1.000
    26        -0.973       1.000
    27         0.304       1.000
    28         0.602       0.997
    29         1.792       0.002
    30         1.991       0.000
    31         2.071       0.000
    32         2.843       0.000
    33         3.161       0.000
    34         4.523       0.000
    35         5.207       0.000
    36         6.161       0.000
   ...
    41         7.508       0.000

kpt = [-0.455, -0.364, 0.000], weight = 0.008:
  Band      eig [eV]   occ [0-1]
     0       -79.589       1.000
   ...
    21        -1.941       1.000
    22        -1.766       1.000
    23        -1.591       1.000
    24        -1.291       1.000
    25        -1.167       1.000
    26        -0.998       1.000
    27         0.238       1.000
    28         0.681       0.994
    29         1.777       0.003
    30         1.983       0.000
    31         2.096       0.000
    32         2.875       0.000
    33         3.114       0.000
    34         4.318       0.000
    35         5.060       0.000
    36         5.712       0.000
   ...
    41         7.597       0.000

kpt = [-0.455, -0.273, 0.000], weight = 0.008:
  Band      eig [eV]   occ [0-1]
     0       -79.589       1.000
   ...
    21        -1.804       1.000
    22        -1.601       1.000
    23        -1.497       1.000
    24        -1.173       1.000
    25        -1.135       1.000
    26        -0.903       1.000
    27         0.109       1.000
    28         0.753       0.987
    29         1.809       0.002
    30         2.015       0.000
    31         2.051       0.000
    32         2.745       0.000
    33         3.132       0.000
    34         4.575       0.000
    35         5.196       0.000
    36         5.724       0.000
   ...
    41         7.537       0.000
(only showing first 3 out of 121 k-points)

Gap: 0.482 eV
Transition (v -> c):
  (s=0, k=60, n=28, [0.00, 0.00, 0.00]) -> (s=0, k=115, n=29, [0.45, 0.00, 0.00])
# Writing to gsq-09.gpw (mode='')

---

timing:  # [seconds]
  Total: 1703.880  # ━━━━━━━━━━━━━━━━━━━━━━━━━━━━━━━━━━━━━━━━━━━━━━━━━━━━━━━━
  Init:     9.801  # ╸
  SCF:    522.128  # ━━━━━━━━━━━━━━━━━

Max RSS: 750.746  # MiB
