#  __  _  _
# | _ |_)|_||  |
# |__||  | ||/\| - 24.1.0

User:   s194113@n-62-28-30
Date:   Thu Apr 18 16:32:22 2024
Arch:   x86_64
Pid:    27570
CWD:    /zhome/87/8/147075/10302/10302_NM/MnI2
Python: 3.8.5
gpaw:   /zhome/87/8/147075/venv-name/gpaw/gpaw (10808453a8)
_gpaw:  /zhome/87/8/147075/venv-name/gpaw/
        _gpaw.cpython-38-x86_64-linux-gnu.so (10808453a8)
ase:    /zhome/87/8/147075/venv-name/ase/ase (version 3.23.0b1-c36115a2db)
numpy:  /zhome/87/8/147075/venv-name/lib/python3.8/site-packages/numpy (version 1.24.4)
scipy:  /zhome/87/8/147075/venv-name/lib/python3.8/site-packages/scipy (version 1.10.1)
libxc:  4.3.4
units:  Angstrom and eV
cores: 12
OpenMP: False
OMP_NUM_THREADS: 1

---
input parameters:
  kpts: 
    density: 6.0
    gamma: True
  magmoms: [[1, 0, 0], [0, 0, 0], [0, 0, 0]]
  mixer: 
    backend: 'pulay'
    beta: 0.05
    method: 'sum'
    nmaxold: 5
    weight: 100
  mode: 
    name: 'pw'
    ecut: 600
    qspiral: array([0.0952381, 0.0952381, 0.       ])
  parallel: 
    kpt: None
    domain: 1
    band: 1
    order: 'kdb'
    stridebands: False
    augment_grids: False
    sl_auto: False
    sl_default: None
    sl_diagonalize: None
    sl_inverse_cholesky: None
    sl_lcao: None
    sl_lrtddft: None
    use_elpa: False
    elpasolver: '2stage'
    buffer_size: None
    gpu: False
  symmetry: 
    point_group: False
    time_reversal: False
  xc: 
    name: 'LDA'

#                        
#                        
#                        
#                        
#                        
#              I         
#                        
#        Mn              
#          I             
#                        
#                        
#                        
#                        
#                        

atoms: [  # symbols, positions [Ang] and initial magnetic moments
  [ Mn, [   0.000000,    0.000000,    5.513573], [ 1.000,  0.000,  0.000]], # 0
  [  I, [   1.984831,    1.145943,    7.027147], [ 0.000,  0.000,  0.000]], # 1
  [  I, [  -0.000000,    2.291886,    4.000000], [ 0.000,  0.000,  0.000]]] # 2

cell: [  # Ang
#     x            y            z
  [   3.969662,    0.000000,    0.000000],
  [  -1.984831,    3.437828,    0.000000],
  [   0.000000,   -0.000000,   11.027147]]

periodic: [True      , True      , False     ]
lengths:  [  3.969662,   3.969662,  11.027147]  # Ang
angles:   [ 90.000000,  90.000000, 120.000000]

symmetry:
  number of symmetries: 1
  rotations: [
    [[ 1,  0,  0], [ 0,  1,  0], [ 0,  0,  1]]]

bz sampling:
  number of bz points: 121
  number of ibz points: 121
  monkhorst-pack size: [11, 11, 1]
  monkhorst-pack shift: [0, 0, 0]
  points and weights: [
    [[ -0.45454545,  -0.45454545,   0.00000000], 0.00826446],  # 0
    [[ -0.45454545,  -0.36363636,   0.00000000], 0.00826446],  # 1
    [[ -0.45454545,  -0.27272727,   0.00000000], 0.00826446],  # 2
    [[ -0.45454545,  -0.18181818,   0.00000000], 0.00826446],  # 3
    [[ -0.45454545,  -0.09090909,   0.00000000], 0.00826446],  # 4
    [[ -0.45454545,   0.00000000,   0.00000000], 0.00826446],  # 5
    [[ -0.45454545,   0.09090909,   0.00000000], 0.00826446],  # 6
    [[ -0.45454545,   0.18181818,   0.00000000], 0.00826446],  # 7
    [[ -0.45454545,   0.27272727,   0.00000000], 0.00826446],  # 8
    [[ -0.45454545,   0.36363636,   0.00000000], 0.00826446],  # 9
    # ...
    [[  0.45454545,   0.45454545,   0.00000000], 0.00826446]]  # 120

plane wave coefficients: 5038
cutoff: 600.0 eV

spin-components: 4  # (non-collinear spins)
bands: 42
valence electrons: 29.0
spin-degeneracy: 1
dtype: complex128

memory:
    wave functions: 817_673_472  # bytes  (68_139_456 per core)

parallelization:
    kpt:    12
    domain: 1
    band:   1

density:
  components: 4
  grid points: [24 24 63]
  charge: 0.0  # |e|

potential:
  grid points: [24 24 63]

species:
  Mn:
    name: Manganese
    id: 0d715a8018be061a6e9ea6f2d364ac92
    Z: 25.0
    valence: 15
    core: 10
    charge: 0.0
    file: /zhome/86/d/1666/PAW/gpaw-setups-0.9.20000/Mn.LDA.gz
    compensation charges: {type: gauss,
                           rc: 0.38,
                           lmax: 2}
    cutoffs: {filter: 2.14,
              core: 0.86}
    valence states:
      #              energy  rcut
      - 3s(2.00)   -85.387   1.275
      - 4s(2.00)    -5.282   1.275
      - 3p(6.00)   -54.493   1.281
      - 4p(0.00)    -1.471   1.281
      - 3d(5.00)    -7.009   1.138
      -  d          20.203   1.138
  
    # Using partial waves for Mn as LCAO basis

  I:
    name: Iodine
    id: b559721c0c096a7b4c8fc0e0f4de5cf4
    Z: 53.0
    valence: 7
    core: 46
    charge: 0.0
    file: /zhome/86/d/1666/PAW/gpaw-setups-0.9.20000/I.LDA.gz
    compensation charges: {type: gauss,
                           rc: 0.37,
                           lmax: 2}
    cutoffs: {filter: 2.06,
              core: 2.90}
    valence states:
      #              energy  rcut
      - 5s(2.00)   -17.626   1.164
      - 5p(5.00)    -7.241   1.164
      -  s           9.585   1.164
      -  p          19.970   1.164
      -  d           0.000   1.164
  
    # Using partial waves for I as LCAO basis

Reference energy: -418222.442431  # eV

eigensolver:
  name: 'Davidson'
  niter: 2
  converge_bands: 'occupied'
Density mixing:
  Method: sum
  Backend: pulay
  Linear mixing parameter: 0.05
  old densities: 5
  Damping of long wavelength oscillations: 100
occupation numbers:
  Fermi-Dirac:
    width: 0.1000  # eV
  

poisson solver:
  ecut: 4800.0  # eV

xc functional:
  name: None

convergence criteria:
- Maximum [total energy] change in last 3 cyles: 0.0005 eV / valence electron
- Maximum integral of absolute [dens]ity change: 0.0001 electrons / valence electron
- Maximum integral of absolute [eigenst]ate change: 4e-08 eV^2 / valence electron
maximum number of iterations: 333

#      iter     time        total  log10-change:
#                          energy   eigst   dens
# iter:   1 16:32:44   -15.928440                  +1.0,+0.0,+0.0
# iter:   2 16:32:57   -14.421035   -0.48  -1.06   +0.9,-0.0,-0.0
# iter:   3 16:33:10   -14.153574   -0.93  -1.32   +0.9,-0.0,-0.0
# iter:   4 16:33:23   -14.349110   -0.88  -1.48   +1.1,-0.0,-0.0
# iter:   5 16:33:36   -14.163163   -1.98  -1.60   +1.4,-0.0,-0.0
# iter:   6 16:33:49   -14.185151   -1.30  -1.74   +1.7,-0.0,-0.0
# iter:   7 16:34:02   -14.169562   -2.42  -1.97   +1.7,-0.0,-0.0
# iter:   8 16:34:15   -14.211036   -2.29  -2.03   +1.9,-0.0,-0.0
# iter:   9 16:34:27   -14.184105   -2.99  -1.80   +2.0,-0.0,-0.0
# iter:  10 16:34:40   -14.221354   -3.39  -1.88   +2.1,-0.0,-0.0
# iter:  11 16:34:53   -14.192938   -3.11  -1.77   +2.1,-0.0,-0.0
# iter:  12 16:35:06   -14.195769   -3.66  -1.81   +2.1,-0.0,-0.0
# iter:  13 16:35:19   -14.061037   -2.74  -1.79   +1.9,-0.0,-0.0
# iter:  14 16:35:32   -14.088543   -3.23  -1.89   +1.7,-0.0,-0.0
# iter:  15 16:35:45   -14.483956   -1.99  -1.94   +2.4,+0.0,+0.0
# iter:  16 16:35:58   -14.613230   -2.52  -2.03   +3.0,+0.0,+0.0
# iter:  17 16:36:11   -14.091713   -1.83  -1.83   +2.4,-0.0,-0.0
# iter:  18 16:36:23   -14.128694   -3.34  -1.76   +2.1,-0.0,-0.0
# iter:  19 16:36:36   -14.150325   -4.02  -1.94   +2.0,-0.0,+0.0
# iter:  20 16:36:49   -14.143646   -4.39  -1.96   +1.9,-0.0,-0.0
# iter:  21 16:37:02   -14.091041   -3.24  -1.93   +1.8,-0.0,-0.0
# iter:  22 16:37:15   -13.988319   -2.94  -1.90   +1.4,-0.0,-0.0
# iter:  23 16:37:28   -14.039476   -3.83  -2.04   +1.3,-0.0,+0.0
# iter:  24 16:37:41   -14.165288   -2.82  -2.12   +1.6,-0.0,+0.0
# iter:  25 16:37:54   -14.185690   -3.87  -2.01   +1.9,-0.0,-0.0
# iter:  26 16:38:07   -13.929258   -2.22  -1.91   +1.4,-0.0,-0.0
# iter:  27 16:38:20   -13.996365   -3.46  -1.83   +1.1,-0.0,-0.0
# iter:  28 16:38:32   -14.084725   -2.82  -2.05   +1.3,-0.0,+0.0
# iter:  29 16:38:45   -14.161903   -3.22  -2.07   +1.7,-0.0,-0.0
# iter:  30 16:38:58   -14.260603   -3.23  -1.92   +2.0,-0.0,-0.0
# iter:  31 16:39:11   -13.778756   -1.87  -1.83   +1.2,-0.0,+0.0
# iter:  32 16:39:24   -13.978616   -2.99  -1.82   +0.8,-0.0,+0.0
# iter:  33 16:39:37   -13.991177   -3.49  -1.89   +0.8,-0.0,+0.0
# iter:  34 16:39:50   -13.991540c  -3.77  -1.90   +0.9,-0.0,+0.0
# iter:  35 16:40:03   -14.069353   -2.35  -1.99   +1.2,-0.0,-0.0
# iter:  36 16:40:15   -14.104265   -3.32  -2.20   +1.5,-0.0,-0.0
# iter:  37 16:40:28   -14.104351   -3.97  -2.07   +1.6,-0.0,-0.0
# iter:  38 16:40:41   -14.018384   -3.21  -1.93   +1.4,-0.0,-0.0
# iter:  39 16:40:54   -13.671501   -1.76  -1.99   +0.2,-0.0,+0.0
# iter:  40 16:41:07   -13.876241   -2.85  -1.67   -0.4,-0.0,+0.0
# iter:  41 16:41:20   -13.811481   -2.64  -1.70   -0.3,-0.0,+0.0
# iter:  42 16:41:33   -13.872581   -2.95  -1.97   +0.2,-0.0,+0.0
# iter:  43 16:41:46   -13.994569   -2.35  -2.14   +0.8,-0.0,+0.0
# iter:  44 16:41:59   -14.005677   -3.58  -2.41   +0.9,-0.0,+0.0
# iter:  45 16:42:11   -13.999057c  -4.03  -2.34   +1.0,-0.0,+0.0
# iter:  46 16:42:24   -14.002408c  -3.86  -2.25   +1.0,-0.0,+0.0
# iter:  47 16:42:37   -14.012615c  -3.75  -2.17   +1.0,+0.0,+0.0
# iter:  48 16:42:50   -13.953951   -3.23  -2.31   +0.8,+0.0,+0.0
# iter:  49 16:43:03   -14.012475   -3.22  -2.35   +1.0,+0.0,+0.0
# iter:  50 16:43:16   -14.019895   -3.55  -2.55   +1.1,+0.0,+0.0
# iter:  51 16:43:29   -14.028502   -3.96  -2.60   +1.1,+0.0,+0.0
# iter:  52 16:43:42   -14.128159   -2.84  -2.61   +1.5,+0.0,+0.0
# iter:  53 16:43:55   -14.007615   -2.89  -2.40   +1.4,+0.0,+0.0
# iter:  54 16:44:08   -14.061944   -3.97  -2.28   +1.4,+0.0,+0.0
# iter:  55 16:44:20   -14.126287   -3.14  -2.25   +1.6,+0.0,+0.0
# iter:  56 16:44:33   -14.039320   -3.53  -2.20   +1.5,+0.0,+0.0
# iter:  57 16:44:46   -14.046924   -3.75  -2.26   +1.4,+0.0,+0.0
# iter:  58 16:44:59   -13.677827   -1.81  -2.19   +0.3,+0.0,+0.0
# iter:  59 16:45:12   -14.121321   -1.68  -1.88   +1.4,+0.0,+0.0
# iter:  60 16:45:25   -14.721748   -1.81  -2.22   +2.8,+0.0,+0.0
# iter:  61 16:45:38   -14.878559   -2.99  -1.79   +3.5,+0.0,+0.0
# iter:  62 16:45:51   -14.688080   -3.12  -1.67   +3.4,+0.0,+0.0
# iter:  63 16:46:04   -14.658488   -3.47  -1.69   +3.3,+0.0,+0.0
# iter:  64 16:46:17   -14.425135   -2.96  -1.67   +3.0,+0.0,+0.0
# iter:  65 16:46:29   -14.399559   -3.69  -1.72   +2.9,+0.0,+0.0
# iter:  66 16:46:42   -14.473113   -3.79  -1.83   +2.9,+0.0,+0.0
# iter:  67 16:46:55   -14.321474   -3.56  -1.81   +2.8,+0.0,+0.0
# iter:  68 16:47:08   -13.990706   -2.48  -1.99   +2.1,+0.0,+0.0
# iter:  69 16:47:21   -13.968225   -2.21  -2.24   +1.4,+0.0,+0.0
# iter:  70 16:47:34   -14.005883   -3.07  -2.40   +1.1,+0.0,+0.0
# iter:  71 16:47:46   -14.025310   -3.17  -2.53   +1.1,+0.0,+0.0
# iter:  72 16:47:59   -14.076384   -3.15  -2.61   +1.3,+0.0,+0.0
# iter:  73 16:48:12   -14.040457   -3.98  -2.55   +1.3,+0.0,+0.0
# iter:  74 16:48:25   -14.048066   -5.22  -2.58   +1.3,+0.0,+0.0
# iter:  75 16:48:38   -14.041911c  -5.31  -2.59   +1.3,+0.0,+0.0
# iter:  76 16:48:51   -14.120410   -3.13  -2.62   +1.5,+0.0,+0.0
# iter:  77 16:49:03   -14.317391   -2.49  -2.51   +2.1,+0.0,+0.0
# iter:  78 16:49:16   -14.411520   -3.53  -2.09   +2.5,+0.0,+0.0
# iter:  79 16:49:29   -14.176396   -2.81  -1.92   +2.4,+0.0,+0.0
# iter:  80 16:49:42   -14.437255   -2.96  -1.96   +2.6,+0.0,+0.0
# iter:  81 16:49:55   -14.368698   -3.94  -1.88   +2.7,+0.0,+0.0
# iter:  82 16:50:08   -14.500598   -3.42  -1.85   +2.9,+0.0,+0.0
# iter:  83 16:50:21   -14.731047   -2.86  -1.81   +3.3,+0.0,+0.0
# iter:  84 16:50:34   -14.486116   -3.13  -1.73   +3.1,+0.0,+0.0
# iter:  85 16:50:46   -14.473545   -4.46  -1.75   +3.0,+0.0,+0.0
# iter:  86 16:50:59   -14.361821   -3.63  -1.78   +2.9,+0.0,+0.0
# iter:  87 16:51:12   -14.209724   -3.14  -1.90   +2.5,+0.0,+0.0
# iter:  88 16:51:25   -14.123113   -2.88  -2.03   +2.2,+0.0,+0.0
# iter:  89 16:51:38   -14.128323   -3.42  -2.16   +1.9,+0.0,+0.0
# iter:  90 16:51:51   -13.989440   -2.72  -2.09   +1.6,+0.0,+0.0
# iter:  91 16:52:04   -13.848950   -2.10  -2.24   +0.8,-0.0,+0.0
# iter:  92 16:52:16   -13.866315   -3.09  -2.19   +0.4,-0.0,+0.0
# iter:  93 16:52:29   -13.918918   -3.29  -2.06   +0.5,-0.0,+0.0
# iter:  94 16:52:42   -14.005645   -2.55  -2.29   +0.9,+0.0,+0.0
# iter:  95 16:52:55   -14.038974   -3.11  -2.75   +1.1,-0.0,+0.0
# iter:  96 16:53:08   -14.044907   -3.83  -2.35   +1.3,+0.0,+0.0
# iter:  97 16:53:21   -14.104541   -3.40  -2.48   +1.4,-0.0,+0.0
# iter:  98 16:53:33   -14.104256   -4.21  -2.09   +1.6,+0.0,+0.0
# iter:  99 16:53:46   -14.026110   -3.29  -2.06   +1.5,-0.0,+0.0
# iter: 100 16:53:59   -14.102944   -3.34  -2.10   +1.5,+0.0,+0.0
# iter: 101 16:54:12   -13.925633   -2.57  -2.15   +1.1,-0.0,+0.0
# iter: 102 16:54:25   -13.916581   -3.10  -2.34   +0.7,-0.0,+0.0
# iter: 103 16:54:38   -14.000800   -2.95  -2.29   +0.9,+0.0,+0.0
# iter: 104 16:54:50   -14.135775   -2.29  -2.79   +1.5,+0.0,+0.0
# iter: 105 16:55:03   -14.069018   -3.36  -2.39   +1.6,+0.0,+0.0
# iter: 106 16:55:16   -13.981857   -2.92  -2.15   +1.3,-0.0,+0.0
# iter: 107 16:55:29   -14.018192   -4.15  -2.27   +1.2,+0.0,+0.0
# iter: 108 16:55:42   -14.022137   -4.75  -2.46   +1.2,+0.0,+0.0
# iter: 109 16:55:55   -14.055096   -3.63  -2.54   +1.3,+0.0,+0.0
# iter: 110 16:56:07   -14.223006   -2.52  -2.48   +1.8,+0.0,+0.0
# iter: 111 16:56:20   -13.914340   -2.35  -2.11   +1.4,-0.0,+0.0
# iter: 112 16:56:33   -14.224210   -2.37  -2.24   +1.7,+0.0,+0.0
# iter: 113 16:56:46   -14.197560   -3.51  -2.11   +2.0,+0.0,+0.0
# iter: 114 16:56:59   -14.007911   -2.70  -2.02   +1.7,+0.0,+0.0
# iter: 115 16:57:12   -13.859252   -2.15  -2.08   +0.9,-0.0,+0.0
# iter: 116 16:57:24   -14.028396   -2.76  -2.17   +1.1,+0.0,+0.0
# iter: 117 16:57:37   -14.050776   -3.38  -2.68   +1.2,+0.0,+0.0
# iter: 118 16:57:50   -14.021983   -4.20  -2.46   +1.2,-0.0,+0.0
# iter: 119 16:58:03   -14.071317   -3.50  -2.40   +1.3,+0.0,+0.0
# iter: 120 16:58:16   -14.072191   -4.59  -2.38   +1.4,+0.0,+0.0
# iter: 121 16:58:29   -14.068394c  -5.02  -2.29   +1.5,+0.0,+0.0
# iter: 122 16:58:41   -14.057763c  -4.37  -2.25   +1.5,-0.0,+0.0
# iter: 123 16:58:54   -14.024054   -3.74  -2.21   +1.3,-0.0,+0.0
# iter: 124 16:59:07   -14.108196   -3.25  -2.26   +1.5,+0.0,+0.0
# iter: 125 16:59:20   -13.934770   -2.64  -2.22   +1.1,-0.0,+0.0
# iter: 126 16:59:33   -13.919003   -2.78  -2.36   +0.7,-0.0,+0.0
# iter: 127 16:59:46   -13.842998   -2.69  -2.15   +0.3,-0.0,+0.0
# iter: 128 16:59:59   -13.849940   -3.89  -2.04   +0.3,-0.0,+0.0
# iter: 129 17:00:11   -13.991837   -2.32  -2.06   +0.8,-0.0,+0.0
# iter: 130 17:00:24   -14.014566   -3.56  -3.02   +1.0,+0.0,+0.0
# iter: 131 17:00:37   -14.038094   -3.45  -2.80   +1.1,+0.0,+0.0
# iter: 132 17:00:50   -14.061751   -3.48  -2.62   +1.3,+0.0,+0.0
# iter: 133 17:01:03   -13.939005   -2.56  -2.47   +0.9,-0.0,+0.0
# iter: 134 17:01:15   -13.945890   -3.71  -2.22   +0.7,-0.0,+0.0
# iter: 135 17:01:28   -13.990482   -3.35  -2.24   +0.9,-0.0,+0.0
# iter: 136 17:01:41   -14.009014   -3.43  -2.45   +1.0,-0.0,+0.0
# iter: 137 17:01:54   -14.016275   -4.12  -2.47   +1.0,-0.0,+0.0
# iter: 138 17:02:07   -14.061277   -3.08  -2.29   +1.3,+0.0,+0.0
# iter: 139 17:02:20   -14.001525   -3.40  -2.35   +1.2,-0.0,+0.0
# iter: 140 17:02:32   -13.983375   -3.42  -2.20   +1.0,-0.0,+0.0
# iter: 141 17:02:45   -14.033979   -3.45  -2.25   +1.1,-0.0,+0.0
# iter: 142 17:02:58   -14.051306   -3.93  -2.36   +1.2,-0.0,+0.0
# iter: 143 17:03:11   -14.021738   -3.93  -2.19   +1.2,+0.0,+0.0
# iter: 144 17:03:24   -14.010394   -3.98  -2.60   +1.1,+0.0,+0.0
# iter: 145 17:03:37   -13.993893   -3.94  -2.63   +1.0,+0.0,+0.0
# iter: 146 17:03:49   -14.017506   -4.18  -2.61   +1.1,+0.0,+0.0
# iter: 147 17:04:02   -14.013662   -4.91  -2.63   +1.1,+0.0,+0.0
# iter: 148 17:04:15   -14.022470c  -4.52  -2.81   +1.1,+0.0,+0.0
# iter: 149 17:04:28   -14.011463c  -4.84  -2.85   +1.1,+0.0,+0.0
# iter: 150 17:04:41   -13.996822   -4.06  -2.84   +1.0,+0.0,-0.0
# iter: 151 17:04:54   -14.009322   -4.89  -2.85   +1.0,+0.0,-0.0
# iter: 152 17:05:07   -13.997524c  -3.78  -2.89   +1.0,-0.0,+0.0
# iter: 153 17:05:19   -14.022166   -3.94  -2.47   +1.1,+0.0,+0.0
# iter: 154 17:05:32   -14.024841   -4.78  -2.56   +1.1,+0.0,+0.0
# iter: 155 17:05:45   -14.027131c  -4.97  -2.51   +1.2,+0.0,+0.0
# iter: 156 17:05:58   -14.016605c  -4.72  -2.54   +1.1,+0.0,+0.0
# iter: 157 17:06:11   -14.037081   -4.38  -2.56   +1.2,+0.0,+0.0
# iter: 158 17:06:24   -14.003850   -3.98  -2.41   +1.1,+0.0,+0.0
# iter: 159 17:06:37   -13.962740   -3.33  -2.51   +0.9,-0.0,-0.0
# iter: 160 17:06:49   -13.830541   -2.45  -2.85   +0.4,-0.0,-0.0
# iter: 161 17:07:02   -13.915534   -3.53  -2.22   +0.5,-0.0,-0.0
# iter: 162 17:07:15   -13.992650   -2.81  -2.49   +0.8,-0.0,-0.0
# iter: 163 17:07:28   -14.043461   -2.81  -2.80   +1.1,+0.0,+0.0
# iter: 164 17:07:41   -14.035347   -4.06  -2.46   +1.2,+0.0,+0.0
# iter: 165 17:07:54   -14.034096c  -4.27  -2.28   +1.2,+0.0,+0.0
# iter: 166 17:08:07   -14.041698c  -4.52  -2.42   +1.3,-0.0,+0.0
# iter: 167 17:08:20   -14.052868   -4.42  -2.26   +1.3,+0.0,+0.0
# iter: 168 17:08:32   -14.073837   -3.92  -2.24   +1.4,+0.0,+0.0
# iter: 169 17:08:45   -13.906789   -2.45  -2.19   +0.9,-0.0,+0.0
# iter: 170 17:08:58   -13.867707   -2.75  -2.15   +0.5,-0.0,+0.0
# iter: 171 17:09:11   -13.895857   -3.99  -2.08   +0.4,-0.0,+0.0
# iter: 172 17:09:24   -13.856661   -3.55  -2.14   +0.3,-0.0,+0.0
# iter: 173 17:09:37   -14.087681   -1.85  -2.03   +1.3,+0.0,+0.0
# iter: 174 17:09:50   -14.208283   -3.10  -2.53   +1.8,+0.0,+0.0
# iter: 175 17:10:02   -13.938389   -2.35  -2.09   +1.4,-0.0,+0.0
# iter: 176 17:10:15   -14.022353   -3.64  -2.12   +1.2,+0.0,+0.0
# iter: 177 17:10:28   -14.087299   -3.10  -2.34   +1.4,+0.0,+0.0
# iter: 178 17:10:41   -14.088255   -4.32  -2.37   +1.5,+0.0,+0.0
# iter: 179 17:10:54   -13.811581   -2.09  -2.16   +0.8,-0.0,+0.0
# iter: 180 17:11:07   -13.864564   -3.31  -2.07   +0.4,-0.0,+0.0
# iter: 181 17:11:20   -13.852990   -3.80  -2.15   +0.3,-0.0,+0.0
# iter: 182 17:11:32   -13.933938   -2.90  -2.12   +0.5,-0.0,+0.0
# iter: 183 17:11:45   -13.925259   -4.36  -2.86   +0.6,-0.0,-0.0
# iter: 184 17:11:58   -13.965144   -3.52  -2.68   +0.7,-0.0,-0.0
# iter: 185 17:12:11   -14.000913   -3.23  -2.95   +0.9,-0.0,-0.0
# iter: 186 17:12:24   -13.995659   -4.58  -2.92   +0.9,-0.0,-0.0
# iter: 187 17:12:37   -13.998170c  -4.90  -2.80   +1.0,-0.0,-0.0
# iter: 188 17:12:49   -13.991854c  -4.93  -2.85   +0.9,-0.0,-0.0
# iter: 189 17:13:02   -14.007207   -4.39  -2.75   +1.0,-0.0,+0.0
# iter: 190 17:13:15   -14.015344   -4.33  -2.73   +1.1,-0.0,+0.0
# iter: 191 17:13:28   -13.996738   -4.36  -2.67   +1.0,-0.0,-0.0
# iter: 192 17:13:41   -13.999997   -5.63  -2.67   +1.0,-0.0,+0.0
# iter: 193 17:13:54   -14.013728   -4.42  -2.71   +1.0,+0.0,+0.0
# iter: 194 17:14:07   -14.010262c  -5.62  -2.65   +1.1,+0.0,+0.0
# iter: 195 17:14:20   -14.020599c  -4.54  -2.61   +1.1,+0.0,+0.0
# iter: 196 17:14:32   -14.055651   -3.54  -2.61   +1.3,+0.0,+0.0
# iter: 197 17:14:45   -14.016563   -3.92  -2.45   +1.2,+0.0,+0.0
# iter: 198 17:14:58   -14.026324   -5.21  -2.45   +1.2,+0.0,+0.0
# iter: 199 17:15:11   -14.013878c  -4.49  -2.51   +1.1,+0.0,+0.0
# iter: 200 17:15:24   -14.025207c  -4.96  -2.50   +1.2,+0.0,+0.0
# iter: 201 17:15:36   -14.023950c  -6.27  -2.53   +1.2,+0.0,+0.0
# iter: 202 17:15:49   -14.049644   -4.00  -2.51   +1.3,+0.0,+0.0
# iter: 203 17:16:02   -13.918607   -2.62  -2.43   +0.9,-0.0,+0.0
# iter: 204 17:16:15   -13.873686   -2.87  -2.36   +0.5,-0.0,-0.0
# iter: 205 17:16:28   -13.874245   -3.99  -2.31   +0.4,-0.0,-0.0
# iter: 206 17:16:41   -13.871255c  -4.51  -2.28   +0.4,-0.0,-0.0
# iter: 207 17:16:53   -14.170382   -1.74  -2.26   +1.5,-0.0,-0.0
# iter: 208 17:17:06   -13.593482   -1.68  -2.25   +0.5,-0.0,+0.0
# iter: 209 17:17:19   -13.950036   -2.41  -1.87   +0.5,-0.0,+0.0
# iter: 210 17:17:32   -13.992570   -3.42  -2.71   +0.8,-0.0,+0.0
# iter: 211 17:17:45   -13.977894   -4.19  -2.63   +0.8,-0.0,+0.0
# iter: 212 17:17:57   -13.992161   -4.33  -2.55   +0.9,-0.0,+0.0
# iter: 213 17:18:10   -14.016933   -3.60  -2.56   +1.0,+0.0,+0.0
# iter: 214 17:18:23   -14.019772   -4.72  -2.55   +1.1,+0.0,+0.0
# iter: 215 17:18:36   -14.010405c  -4.79  -2.44   +1.1,+0.0,+0.0
# iter: 216 17:18:49   -13.991732   -3.94  -2.48   +1.0,-0.0,+0.0
# iter: 217 17:19:02   -14.027259   -3.69  -2.48   +1.1,-0.0,+0.0
# iter: 218 17:19:14   -13.974459   -3.41  -2.56   +0.9,-0.0,+0.0
# iter: 219 17:19:27   -13.780557   -2.27  -2.53   +0.3,-0.0,+0.0
# iter: 220 17:19:40   -14.027075   -2.13  -2.21   +1.0,+0.0,+0.0
# iter: 221 17:19:53   -14.235253   -2.40  -2.56   +1.7,+0.0,+0.0
# iter: 222 17:20:06   -14.316725   -3.30  -1.97   +2.2,+0.0,+0.0
# iter: 223 17:20:18   -14.184190   -3.23  -1.79   +2.2,+0.0,+0.0
# iter: 224 17:20:31   -14.562800   -2.56  -1.82   +2.7,+0.0,-0.0
# iter: 225 17:20:44   -14.085887   -2.46  -1.67   +2.4,-0.0,+0.0
# iter: 226 17:20:57   -14.416879   -2.79  -1.80   +2.5,+0.0,+0.0
# iter: 227 17:21:10   -14.813230   -2.10  -1.77   +3.3,+0.0,+0.0
# iter: 228 17:21:23   -14.871984   -3.42  -1.74   +3.7,+0.0,+0.0
# iter: 229 17:21:35   -14.417793   -2.65  -1.70   +3.2,+0.0,+0.0
# iter: 230 17:21:48   -14.450654   -3.79  -1.91   +3.0,+0.0,+0.0
# iter: 231 17:22:01   -14.572979   -3.20  -1.86   +3.1,+0.0,+0.0
# iter: 232 17:22:14   -14.650314   -3.50  -1.94   +3.3,+0.0,+0.0
# iter: 233 17:22:27   -14.363099   -2.98  -1.87   +3.0,+0.0,+0.0
# iter: 234 17:22:39   -14.729469   -3.06  -2.11   +3.2,+0.0,+0.0
# iter: 235 17:22:52   -14.395992   -2.87  -1.80   +3.1,-0.0,+0.0
# iter: 236 17:23:05   -14.359959   -3.65  -2.45   +2.9,+0.0,-0.0
# iter: 237 17:23:18   -14.461209   -2.66  -2.57   +2.8,+0.0,-0.0
# iter: 238 17:23:31   -14.373813   -3.79  -1.94   +2.8,+0.0,+0.0
# iter: 239 17:23:43   -14.422894   -4.15  -2.07   +2.8,+0.0,+0.0
# iter: 240 17:23:56   -14.367078   -4.50  -2.01   +2.8,+0.0,+0.0
# iter: 241 17:24:09   -14.329639   -2.93  -2.13   +2.7,+0.0,+0.0
# iter: 242 17:24:22   -14.407259   -3.82  -2.65   +2.7,-0.0,+0.0
# iter: 243 17:24:35   -14.411488   -4.99  -2.61   +2.8,-0.0,+0.0
# iter: 244 17:24:48   -14.543112   -2.70  -2.57   +2.9,+0.0,-0.0
# iter: 245 17:25:00   -14.501919   -3.92  -1.88   +3.0,+0.0,-0.0
# iter: 246 17:25:13   -14.544587   -4.46  -1.87   +3.1,+0.0,-0.0
# iter: 247 17:25:26   -14.614639   -3.89  -1.82   +3.2,+0.0,-0.0
# iter: 248 17:25:39   -14.466165   -2.67  -1.75   +3.2,+0.0,-0.0
# iter: 249 17:25:52   -14.498080   -4.03  -2.20   +3.1,+0.0,-0.0
# iter: 250 17:26:05   -14.468446   -3.55  -2.21   +3.1,-0.0,+0.0
# iter: 251 17:26:18   -14.531543   -3.78  -2.49   +3.1,+0.0,+0.0
# iter: 252 17:26:30   -14.484417   -4.68  -2.54   +3.1,-0.0,+0.0
# iter: 253 17:26:43   -14.638727   -3.43  -2.58   +3.2,+0.0,+0.0
# iter: 254 17:26:56   -14.349347   -2.87  -2.37   +3.0,-0.0,+0.0
# iter: 255 17:27:09   -14.347887   -4.05  -2.60   +2.8,-0.0,+0.0
# iter: 256 17:27:22   -14.595081   -3.12  -2.62   +3.0,+0.0,+0.0
# iter: 257 17:27:34   -14.485443   -2.92  -1.97   +3.0,+0.0,+0.0
# iter: 258 17:27:47   -14.717778   -2.07  -1.81   +3.4,+0.0,+0.0
# iter: 259 17:28:00   -14.723751   -3.45  -2.25   +3.5,+0.0,+0.0
# iter: 260 17:28:13   -14.650908   -3.72  -2.20   +3.4,+0.0,-0.0
# iter: 261 17:28:26   -14.768398   -3.61  -2.11   +3.6,+0.0,-0.0
# iter: 262 17:28:39   -14.620419   -3.79  -2.02   +3.5,+0.0,-0.0
# iter: 263 17:28:51   -14.647474   -4.68  -2.33   +3.4,+0.0,-0.0
# iter: 264 17:29:04   -14.901412   -2.66  -2.37   +3.8,+0.0,-0.0
# iter: 265 17:29:17   -14.908625   -3.91  -2.49   +4.0,+0.0,-0.0
# iter: 266 17:29:30   -14.539100   -2.16  -2.48   +3.4,-0.0,+0.0
# iter: 267 17:29:43   -14.583853   -4.01  -2.14   +3.3,+0.0,+0.0
# iter: 268 17:29:56   -14.651348   -3.34  -2.17   +3.4,+0.0,-0.0
# iter: 269 17:30:09   -15.020906   -2.08  -2.28   +4.1,+0.0,-0.0
# iter: 270 17:30:21   -15.017334   -3.44  -2.59   +4.2,+0.0,-0.0
# iter: 271 17:30:34   -14.995263   -4.29  -2.61   +4.2,+0.0,-0.0
# iter: 272 17:30:47   -15.025641   -4.08  -2.60   +4.3,+0.0,-0.0
# iter: 273 17:31:00   -14.982486   -3.43  -2.49   +4.1,+0.0,-0.0
# iter: 274 17:31:13   -15.050164   -3.55  -2.55   +4.3,+0.0,-0.0
# iter: 275 17:31:26   -15.057107   -4.00  -2.61   +4.4,+0.0,-0.0
# iter: 276 17:31:38   -15.045796c  -4.54  -2.63   +4.3,+0.0,-0.0
# iter: 277 17:31:51   -15.126011   -3.00  -2.67   +4.7,+0.0,-0.0
# iter: 278 17:32:04   -15.132169   -3.64  -2.91   +4.7,+0.0,-0.0
# iter: 279 17:32:17   -15.132087c  -4.70  -3.01   +4.7,+0.0,-0.0
# iter: 280 17:32:30   -15.132243c  -4.80  -3.05   +4.7,+0.0,-0.0
# iter: 281 17:32:43   -15.120620c  -4.21  -3.11   +4.6,+0.0,-0.0
# iter: 282 17:32:55   -15.127823c  -4.57  -3.13   +4.7,+0.0,-0.0
# iter: 283 17:33:08   -15.131966c  -4.75  -3.16   +4.7,+0.0,-0.0
# iter: 284 17:33:21   -15.132114c  -5.33  -3.20   +4.7,+0.0,-0.0
# iter: 285 17:33:34   -15.132239c  -5.97  -3.25   +4.7,+0.0,-0.0
# iter: 286 17:33:47   -15.133069c  -5.57  -3.26   +4.7,+0.0,-0.0
# iter: 287 17:34:00   -15.135615c  -4.70  -3.29   +4.8,+0.0,-0.0
# iter: 288 17:34:12   -15.135471c  -5.27  -3.48   +4.8,+0.0,-0.0
# iter: 289 17:34:25   -15.135451c  -6.17  -3.77   +4.8,+0.0,-0.0
# iter: 290 17:34:38   -15.135430c  -6.39  -3.80   +4.8,+0.0,-0.0
# iter: 291 17:34:51   -15.135416c  -6.04  -3.90   +4.8,+0.0,-0.0
# iter: 292 17:35:04   -15.135493c  -6.59  -4.06c  +4.8,+0.0,-0.0
# iter: 293 17:35:17   -15.135508c  -6.55  -4.03c  +4.8,+0.0,-0.0
# iter: 294 17:35:29   -15.135486c  -7.11  -4.11c  +4.8,+0.0,-0.0
# iter: 295 17:35:42   -15.135482c  -7.18  -4.16c  +4.8,+0.0,-0.0
# iter: 296 17:35:55   -15.135442c  -7.16  -4.20c  +4.8,+0.0,-0.0
# iter: 297 17:36:08   -15.135435c  -7.81c -4.29c  +4.8,+0.0,-0.0
scf_steps: 297
energies:  # eV
  coulomb:         -26.045423
  zero:              0.076263
  xc:              -20.570137
  external:          0.000000
  kinetic:          31.411228
  spinorbit:         0.000000
  entropy:          -0.014730
  total:           -15.142800
  extrapolated:    -15.135435

dipole moment: [-5.313433, -9.203137, -9.952195]  # |e|*Ang

total magnetic moment: [4.782693, 0.016631, -0.000000]

local magnetic moments: [
  [ 4.191143, -0.000000, -0.000000],  # Mn 0
  [ 0.075383, -0.051398, -0.000000],  # I  1
  [ 0.075385, -0.051394, -0.000000]]  # I  2


Fermi level: 1.118 eV

kpt = [-0.455, -0.455, 0.000], weight = 0.008:
  Band      eig [eV]   occ [0-1]
     0       -79.672       1.000
   ...
    21        -1.979       1.000
    22        -1.857       1.000
    23        -1.820       1.000
    24        -1.554       1.000
    25        -1.454       1.000
    26        -1.345       1.000
    27         0.577       0.996
    28         0.588       0.995
    29         1.488       0.024
    30         2.030       0.000
    31         2.062       0.000
    32         3.069       0.000
    33         3.234       0.000
    34         3.875       0.000
    35         4.942       0.000
    36         5.244       0.000
   ...
    41         7.291       0.000

kpt = [-0.455, -0.364, 0.000], weight = 0.008:
  Band      eig [eV]   occ [0-1]
     0       -79.672       1.000
   ...
    21        -2.087       1.000
    22        -1.891       1.000
    23        -1.725       1.000
    24        -1.504       1.000
    25        -1.362       1.000
    26        -1.240       1.000
    27         0.388       0.999
    28         0.522       0.997
    29         1.673       0.004
    30         2.013       0.000
    31         2.074       0.000
    32         2.950       0.000
    33         3.151       0.000
    34         4.152       0.000
    35         5.184       0.000
    36         5.675       0.000
   ...
    41         7.548       0.000

kpt = [-0.455, -0.273, 0.000], weight = 0.008:
  Band      eig [eV]   occ [0-1]
     0       -79.672       1.000
   ...
    21        -2.214       1.000
    22        -1.925       1.000
    23        -1.669       1.000
    24        -1.479       1.000
    25        -1.319       1.000
    26        -1.136       1.000
    27         0.232       1.000
    28         0.495       0.998
    29         1.831       0.001
    30         1.996       0.000
    31         2.061       0.000
    32         2.836       0.000
    33         3.118       0.000
    34         4.579       0.000
    35         5.228       0.000
    36         6.240       0.000
   ...
    41         7.496       0.000
(only showing first 3 out of 121 k-points)

Gap: 0.322 eV
Transition (v -> c):
  (s=0, k=60, n=28, [0.00, 0.00, 0.00]) -> (s=0, k=115, n=29, [0.45, 0.00, 0.00])
# Writing to gsq-26.gpw (mode='')

