#  __  _  _
# | _ |_)|_||  |
# |__||  | ||/\| - 24.1.0

User:   s194099@n-62-29-26
Date:   Wed Apr 17 17:18:35 2024
Arch:   x86_64
Pid:    20525
CWD:    /zhome/84/5/147090/10302_NM/MnI2
Python: 3.8.5
gpaw:   /zhome/84/5/147090/venv1/gpaw/gpaw (10808453a8)
_gpaw:  /zhome/84/5/147090/venv1/gpaw/
        _gpaw.cpython-38-x86_64-linux-gnu.so (10808453a8)
ase:    /zhome/84/5/147090/venv1/ase/ase (version 3.23.0b1-c36115a2db)
numpy:  /zhome/84/5/147090/venv1/lib/python3.8/site-packages/numpy (version 1.24.4)
scipy:  /zhome/84/5/147090/venv1/lib/python3.8/site-packages/scipy (version 1.10.1)
libxc:  4.3.4
units:  Angstrom and eV
cores: 12
OpenMP: False
OMP_NUM_THREADS: 1

---
input parameters:
  kpts: 
    density: 6.0
    gamma: True
  magmoms: [[1, 0, 0], [0, 0, 0], [0, 0, 0]]
  mixer: 
    backend: 'pulay'
    beta: 0.05
    method: 'sum'
    nmaxold: 5
    weight: 100
  mode: 
    name: 'pw'
    ecut: 600
    qspiral: array([0.21428571, 0.21428571, 0.        ])
  parallel: 
    kpt: None
    domain: 1
    band: 1
    order: 'kdb'
    stridebands: False
    augment_grids: False
    sl_auto: False
    sl_default: None
    sl_diagonalize: None
    sl_inverse_cholesky: None
    sl_lcao: None
    sl_lrtddft: None
    use_elpa: False
    elpasolver: '2stage'
    buffer_size: None
    gpu: False
  symmetry: 
    point_group: False
    time_reversal: False
  xc: 
    name: 'LDA'

#                        
#                        
#                        
#                        
#                        
#              I         
#                        
#        Mn              
#          I             
#                        
#                        
#                        
#                        
#                        

atoms: [  # symbols, positions [Ang] and initial magnetic moments
  [ Mn, [   0.000000,    0.000000,    5.513573], [ 1.000,  0.000,  0.000]], # 0
  [  I, [   1.984831,    1.145943,    7.027147], [ 0.000,  0.000,  0.000]], # 1
  [  I, [  -0.000000,    2.291886,    4.000000], [ 0.000,  0.000,  0.000]]] # 2

cell: [  # Ang
#     x            y            z
  [   3.969662,    0.000000,    0.000000],
  [  -1.984831,    3.437828,    0.000000],
  [   0.000000,   -0.000000,   11.027147]]

periodic: [True      , True      , False     ]
lengths:  [  3.969662,   3.969662,  11.027147]  # Ang
angles:   [ 90.000000,  90.000000, 120.000000]

symmetry:
  number of symmetries: 1
  rotations: [
    [[ 1,  0,  0], [ 0,  1,  0], [ 0,  0,  1]]]

bz sampling:
  number of bz points: 121
  number of ibz points: 121
  monkhorst-pack size: [11, 11, 1]
  monkhorst-pack shift: [0, 0, 0]
  points and weights: [
    [[ -0.45454545,  -0.45454545,   0.00000000], 0.00826446],  # 0
    [[ -0.45454545,  -0.36363636,   0.00000000], 0.00826446],  # 1
    [[ -0.45454545,  -0.27272727,   0.00000000], 0.00826446],  # 2
    [[ -0.45454545,  -0.18181818,   0.00000000], 0.00826446],  # 3
    [[ -0.45454545,  -0.09090909,   0.00000000], 0.00826446],  # 4
    [[ -0.45454545,   0.00000000,   0.00000000], 0.00826446],  # 5
    [[ -0.45454545,   0.09090909,   0.00000000], 0.00826446],  # 6
    [[ -0.45454545,   0.18181818,   0.00000000], 0.00826446],  # 7
    [[ -0.45454545,   0.27272727,   0.00000000], 0.00826446],  # 8
    [[ -0.45454545,   0.36363636,   0.00000000], 0.00826446],  # 9
    # ...
    [[  0.45454545,   0.45454545,   0.00000000], 0.00826446]]  # 120

plane wave coefficients: 5038
cutoff: 600.0 eV

spin-components: 4  # (non-collinear spins)
bands: 42
valence electrons: 29.0
spin-degeneracy: 1
dtype: complex128

memory:
    wave functions: 817_673_472  # bytes  (68_139_456 per core)

parallelization:
    kpt:    12
    domain: 1
    band:   1

density:
  components: 4
  grid points: [24 24 63]
  charge: 0.0  # |e|

potential:
  grid points: [24 24 63]

species:
  Mn:
    name: Manganese
    id: 0d715a8018be061a6e9ea6f2d364ac92
    Z: 25.0
    valence: 15
    core: 10
    charge: 0.0
    file: /zhome/86/d/1666/PAW/gpaw-setups-0.9.20000/Mn.LDA.gz
    compensation charges: {type: gauss,
                           rc: 0.38,
                           lmax: 2}
    cutoffs: {filter: 2.14,
              core: 0.86}
    valence states:
      #              energy  rcut
      - 3s(2.00)   -85.387   1.275
      - 4s(2.00)    -5.282   1.275
      - 3p(6.00)   -54.493   1.281
      - 4p(0.00)    -1.471   1.281
      - 3d(5.00)    -7.009   1.138
      -  d          20.203   1.138
  
    # Using partial waves for Mn as LCAO basis

  I:
    name: Iodine
    id: b559721c0c096a7b4c8fc0e0f4de5cf4
    Z: 53.0
    valence: 7
    core: 46
    charge: 0.0
    file: /zhome/86/d/1666/PAW/gpaw-setups-0.9.20000/I.LDA.gz
    compensation charges: {type: gauss,
                           rc: 0.37,
                           lmax: 2}
    cutoffs: {filter: 2.06,
              core: 2.90}
    valence states:
      #              energy  rcut
      - 5s(2.00)   -17.626   1.164
      - 5p(5.00)    -7.241   1.164
      -  s           9.585   1.164
      -  p          19.970   1.164
      -  d           0.000   1.164
  
    # Using partial waves for I as LCAO basis

Reference energy: -418222.442431  # eV

eigensolver:
  name: 'Davidson'
  niter: 2
  converge_bands: 'occupied'
Density mixing:
  Method: sum
  Backend: pulay
  Linear mixing parameter: 0.05
  old densities: 5
  Damping of long wavelength oscillations: 100
occupation numbers:
  Fermi-Dirac:
    width: 0.1000  # eV
  

poisson solver:
  ecut: 4800.0  # eV

xc functional:
  name: None

convergence criteria:
- Maximum [total energy] change in last 3 cyles: 0.0005 eV / valence electron
- Maximum integral of absolute [dens]ity change: 0.0001 electrons / valence electron
- Maximum integral of absolute [eigenst]ate change: 4e-08 eV^2 / valence electron
maximum number of iterations: 333

#      iter     time        total  log10-change:
#                          energy   eigst   dens
# iter:   1 17:18:58   -15.741863                  +1.0,+0.0,+0.0
# iter:   2 17:19:11   -14.399402   -0.28  -1.05   +0.8,-0.0,+0.0
# iter:   3 17:19:24   -14.150253   -0.83  -1.32   +1.0,-0.0,-0.0
# iter:   4 17:19:37   -14.357713   -0.85  -1.48   +1.1,-0.0,-0.0
# iter:   5 17:19:50   -14.192009   -1.86  -1.61   +1.4,-0.0,-0.0
# iter:   6 17:20:03   -14.225389   -1.29  -1.73   +1.7,-0.0,-0.0
# iter:   7 17:20:16   -14.257909   -2.28  -1.97   +1.8,-0.0,+0.0
# iter:   8 17:20:29   -14.294031   -2.40  -1.89   +2.0,-0.0,-0.0
# iter:   9 17:20:42   -14.278835   -2.33  -1.72   +2.1,-0.0,+0.0
# iter:  10 17:20:55   -14.342461   -3.32  -1.81   +2.2,-0.0,+0.0
# iter:  11 17:21:08   -14.445245   -3.33  -1.78   +2.4,+0.0,+0.0
# iter:  12 17:21:21   -14.388045   -3.97  -1.74   +2.4,+0.0,+0.0
# iter:  13 17:21:34   -14.024414   -1.62  -1.78   +1.7,-0.0,-0.0
# iter:  14 17:21:47   -13.971669   -2.33  -1.71   +1.3,-0.0,-0.0
# iter:  15 17:22:00   -13.926440   -2.17  -1.85   +0.8,-0.0,-0.0
# iter:  16 17:22:13   -13.928484   -3.32  -1.96   +0.6,-0.0,-0.0
# iter:  17 17:22:26   -13.986807   -2.74  -1.99   +0.8,-0.0,-0.0
# iter:  18 17:22:39   -14.177468   -2.13  -2.09   +1.4,+0.0,-0.0
# iter:  19 17:22:52   -14.268680   -2.84  -2.28   +1.8,+0.0,-0.0
# iter:  20 17:23:04   -14.292381   -3.42  -2.10   +2.0,+0.0,-0.0
# iter:  21 17:23:17   -14.359552   -3.66  -1.93   +2.2,+0.0,-0.0
# iter:  22 17:23:30   -14.843067   -2.36  -1.88   +2.9,+0.0,-0.0
# iter:  23 17:23:43   -14.669246   -3.33  -1.77   +2.9,+0.0,+0.0
# iter:  24 17:23:56   -14.756104   -3.53  -1.75   +3.1,+0.0,+0.0
# iter:  25 17:24:09   -14.459271   -2.18  -1.78   +2.6,+0.0,-0.0
# iter:  26 17:24:21   -15.044348   -1.82  -1.64   +3.5,+0.0,-0.0
# iter:  27 17:24:34   -15.185442   -1.33  -1.89   +4.5,+0.0,-0.0
# iter:  28 17:24:47   -15.164558   -3.05  -2.19   +4.1,+0.0,-0.0
# iter:  29 17:25:00   -15.175917   -3.44  -2.47   +4.3,+0.0,-0.0
# iter:  30 17:25:13   -15.173438c  -4.30  -2.56   +4.3,+0.0,-0.0
# iter:  31 17:25:26   -15.176660c  -3.54  -2.54   +4.2,+0.0,-0.0
# iter:  32 17:25:39   -15.179931c  -3.62  -2.39   +4.4,+0.0,-0.0
# iter:  33 17:25:51   -15.178097c  -4.07  -2.66   +4.4,+0.0,-0.0
# iter:  34 17:26:04   -15.178310c  -3.79  -2.67   +4.3,+0.0,-0.0
# iter:  35 17:26:17   -15.177983c  -4.87  -2.75   +4.3,+0.0,-0.0
# iter:  36 17:26:30   -15.177386c  -5.23  -2.81   +4.3,+0.0,-0.0
# iter:  37 17:26:43   -15.176738c  -4.08  -2.88   +4.3,+0.0,-0.0
# iter:  38 17:26:56   -15.176448c  -5.14  -2.98   +4.3,+0.0,-0.0
# iter:  39 17:27:09   -15.176629c  -5.72  -3.05   +4.3,+0.0,-0.0
# iter:  40 17:27:21   -15.178566c  -4.42  -3.07   +4.4,+0.0,-0.0
# iter:  41 17:27:34   -15.178088c  -4.43  -3.28   +4.4,+0.0,-0.0
# iter:  42 17:27:47   -15.178087c  -5.59  -3.65   +4.4,+0.0,-0.0
# iter:  43 17:28:00   -15.178321c  -5.24  -3.68   +4.4,+0.0,-0.0
# iter:  44 17:28:13   -15.178106c  -4.84  -3.55   +4.4,+0.0,-0.0
# iter:  45 17:28:25   -15.178082c  -6.19  -3.91   +4.4,+0.0,-0.0
# iter:  46 17:28:38   -15.178099c  -6.39  -3.95   +4.4,+0.0,-0.0
# iter:  47 17:28:51   -15.178113c  -5.50  -4.04c  +4.4,+0.0,-0.0
# iter:  48 17:29:04   -15.178133c  -6.05  -4.06c  +4.4,+0.0,-0.0
# iter:  49 17:29:17   -15.178136c  -7.29  -4.76c  +4.4,+0.0,-0.0
# iter:  50 17:29:30   -15.178134c  -6.59  -4.78c  +4.4,+0.0,-0.0
# iter:  51 17:29:42   -15.178145c  -6.92  -4.48c  +4.4,+0.0,-0.0
# iter:  52 17:29:55   -15.178147c  -7.99c -5.14c  +4.4,+0.0,-0.0
scf_steps: 52
energies:  # eV
  coulomb:         -25.003437
  zero:              0.082777
  xc:              -20.387669
  external:          0.000000
  kinetic:          30.134156
  spinorbit:         0.000000
  entropy:          -0.007949
  total:           -15.182121
  extrapolated:    -15.178147

dipole moment: [-4.819456, -8.347541, -7.736786]  # |e|*Ang

total magnetic moment: [4.368350, 0.013361, -0.000000]

local magnetic moments: [
  [ 4.137036,  0.000000, -0.000000],  # Mn 0
  [ 0.009325, -0.040854, -0.000000],  # I  1
  [ 0.009324, -0.040854, -0.000000]]  # I  2


Fermi level: 1.169 eV

kpt = [-0.455, -0.455, 0.000], weight = 0.008:
  Band      eig [eV]   occ [0-1]
     0       -79.600       1.000
   ...
    21        -2.105       1.000
    22        -1.882       1.000
    23        -1.795       1.000
    24        -1.457       1.000
    25        -1.245       1.000
    26        -1.161       1.000
    27         0.440       0.999
    28         0.481       0.999
    29         1.728       0.004
    30         2.012       0.000
    31         2.103       0.000
    32         2.936       0.000
    33         3.087       0.000
    34         4.332       0.000
    35         5.207       0.000
    36         5.968       0.000
   ...
    41         7.223       0.000

kpt = [-0.455, -0.364, 0.000], weight = 0.008:
  Band      eig [eV]   occ [0-1]
     0       -79.600       1.000
   ...
    21        -2.032       1.000
    22        -1.880       1.000
    23        -1.822       1.000
    24        -1.356       1.000
    25        -1.247       1.000
    26        -1.166       1.000
    27         0.300       1.000
    28         0.647       0.995
    29         1.731       0.004
    30         1.971       0.000
    31         2.107       0.000
    32         3.011       0.000
    33         3.114       0.000
    34         4.062       0.000
    35         5.104       0.000
    36         5.367       0.000
   ...
    41         7.695       0.000

kpt = [-0.455, -0.273, 0.000], weight = 0.008:
  Band      eig [eV]   occ [0-1]
     0       -79.600       1.000
   ...
    21        -2.066       1.000
    22        -1.807       1.000
    23        -1.734       1.000
    24        -1.340       1.000
    25        -1.172       1.000
    26        -1.086       1.000
    27         0.268       1.000
    28         0.676       0.993
    29         1.779       0.002
    30         1.957       0.000
    31         2.088       0.000
    32         2.936       0.000
    33         3.165       0.000
    34         4.174       0.000
    35         4.840       0.000
    36         5.597       0.000
   ...
    41         7.069       0.000
(only showing first 3 out of 121 k-points)

Gap: 0.772 eV
Transition (v -> c):
  (s=0, k=60, n=28, [0.00, 0.00, 0.00]) -> (s=0, k=5, n=29, [-0.45, 0.00, 0.00])
# Writing to gsq-21.gpw (mode='')

---

timing:  # [seconds]
  Total: 680.301  # ━━━━━━━━━━━━━━━━━━━━━━━━━━━━━━━━━━━━━━━━━━━━━━━━━━━━━━━━━
  Init:    9.876  # ━
  SCF:   670.141  # ━━━━━━━━━━━━━━━━━━━━━━━━━━━━━━━━━━━━━━━━━━━━━━━━━━━━━━━━

Max RSS: 940.273  # MiB
