#  __  _  _
# | _ |_)|_||  |
# |__||  | ||/\| - 24.1.0

User:   s194113@n-62-29-28
Date:   Sun Apr 21 20:18:15 2024
Arch:   x86_64
Pid:    14076
CWD:    /zhome/87/8/147075/10302/10302_NM/VBr2/V_con
Python: 3.8.5
gpaw:   /zhome/87/8/147075/venv-name/gpaw/gpaw (10808453a8)
_gpaw:  /zhome/87/8/147075/venv-name/gpaw/
        _gpaw.cpython-38-x86_64-linux-gnu.so (10808453a8)
ase:    /zhome/87/8/147075/venv-name/ase/ase (version 3.23.0b1-c36115a2db)
numpy:  /zhome/87/8/147075/venv-name/lib/python3.8/site-packages/numpy (version 1.24.4)
scipy:  /zhome/87/8/147075/venv-name/lib/python3.8/site-packages/scipy (version 1.10.1)
libxc:  4.3.4
units:  Angstrom and eV
cores: 12
OpenMP: False
OMP_NUM_THREADS: 1

---
input parameters:
  kpts: 
    density: 6.0
    gamma: True
  magmoms: [[1, 0, 0], [0, 0, 0], [0, 0, 0]]
  mixer: 
    backend: 'pulay'
    beta: 0.05
    method: 'sum'
    nmaxold: 5
    weight: 100
  mode: 
    name: 'pw'
    ecut: 600
    qspiral: array([0.04761905, 0.04761905, 0.        ])
  parallel: 
    kpt: None
    domain: 1
    band: 1
    order: 'kdb'
    stridebands: False
    augment_grids: False
    sl_auto: False
    sl_default: None
    sl_diagonalize: None
    sl_inverse_cholesky: None
    sl_lcao: None
    sl_lrtddft: None
    use_elpa: False
    elpasolver: '2stage'
    buffer_size: None
    gpu: False
  symmetry: 
    point_group: False
    time_reversal: False
  xc: 
    name: 'LDA'

#                        
#                        
#                        
#                        
#                        
#              Br        
#                        
#        V               
#          Br            
#                        
#                        
#                        
#                        
#                        

atoms: [  # symbols, positions [Ang] and initial magnetic moments
  [  V, [   0.000000,    0.000000,    7.513573], [ 1.000,  0.000,  0.000]], # 0
  [ Br, [   1.920000,    1.108513,    9.027147], [ 0.000,  0.000,  0.000]], # 1
  [ Br, [  -0.000000,    2.217025,    6.000000], [ 0.000,  0.000,  0.000]]] # 2

cell: [  # Ang
#     x            y            z
  [   3.840000,    0.000000,    0.000000],
  [  -1.920000,    3.325538,    0.000000],
  [   0.000000,   -0.000000,   15.027147]]

periodic: [True      , True      , False     ]
lengths:  [  3.840000,   3.840000,  15.027147]  # Ang
angles:   [ 90.000000,  90.000000, 120.000000]

symmetry:
  number of symmetries: 1
  rotations: [
    [[ 1,  0,  0], [ 0,  1,  0], [ 0,  0,  1]]]

bz sampling:
  number of bz points: 144
  number of ibz points: 144
  monkhorst-pack size: [12, 12, 1]
  monkhorst-pack shift: [0.041666666666666664, 0.041666666666666664, 0.0]
  points and weights: [
    [[ -0.41666667,  -0.41666667,   0.00000000], 0.00694444],  # 0
    [[ -0.41666667,  -0.33333333,   0.00000000], 0.00694444],  # 1
    [[ -0.41666667,  -0.25000000,   0.00000000], 0.00694444],  # 2
    [[ -0.41666667,  -0.16666667,   0.00000000], 0.00694444],  # 3
    [[ -0.41666667,  -0.08333333,   0.00000000], 0.00694444],  # 4
    [[ -0.41666667,  -0.00000000,   0.00000000], 0.00694444],  # 5
    [[ -0.41666667,   0.08333333,   0.00000000], 0.00694444],  # 6
    [[ -0.41666667,   0.16666667,   0.00000000], 0.00694444],  # 7
    [[ -0.41666667,   0.25000000,   0.00000000], 0.00694444],  # 8
    [[ -0.41666667,   0.33333333,   0.00000000], 0.00694444],  # 9
    # ...
    [[  0.50000000,   0.50000000,   0.00000000], 0.00694444]]  # 143

plane wave coefficients: 6439
cutoff: 600.0 eV

spin-components: 4  # (non-collinear spins)
bands: 42
valence electrons: 27.0
spin-degeneracy: 1
dtype: complex128

memory:
    wave functions: 1_238_243_328  # bytes  (103_186_944 per core)

parallelization:
    kpt:    12
    domain: 1
    band:   1

density:
  components: 4
  grid points: [24 24 90]
  charge: 0.0  # |e|

potential:
  grid points: [24 24 90]

species:
  V:
    name: Vanadium
    id: 7939ce69e6bb5930668dfcf9bb1979c3
    Z: 23.0
    valence: 13
    core: 10
    charge: 0.0
    file: /zhome/86/d/1666/PAW/gpaw-setups-0.9.20000/V.LDA.gz
    compensation charges: {type: gauss,
                           rc: 0.37,
                           lmax: 2}
    cutoffs: {filter: 2.14,
              core: 0.96}
    valence states:
      #              energy  rcut
      - 3s(2.00)   -69.819   1.254
      - 4s(2.00)    -4.846   1.254
      - 3p(6.00)   -43.961   1.281
      - 4p(0.00)    -1.526   1.281
      - 3d(3.00)    -5.381   1.169
      -  d          21.830   1.169
  
    # Using partial waves for V as LCAO basis

  Br:
    name: Bromine
    id: 10a25bbcb3273ec7d8d7f6fc01d2618d
    Z: 35.0
    valence: 7
    core: 28
    charge: 0.0
    file: /zhome/86/d/1666/PAW/gpaw-setups-0.9.20000/Br.LDA.gz
    compensation charges: {type: gauss,
                           rc: 0.35,
                           lmax: 2}
    cutoffs: {filter: 1.98,
              core: 2.38}
    valence states:
      #              energy  rcut
      - 4s(2.00)   -20.306   1.111
      - 4p(5.00)    -8.003   1.111
      -  s           6.906   1.111
      -  p          19.208   1.111
      -  d           0.000   1.111
  
    # Using partial waves for Br as LCAO basis

Reference energy: -167392.690611  # eV

eigensolver:
  name: 'Davidson'
  niter: 2
  converge_bands: 'occupied'
Density mixing:
  Method: sum
  Backend: pulay
  Linear mixing parameter: 0.05
  old densities: 5
  Damping of long wavelength oscillations: 100
occupation numbers:
  Fermi-Dirac:
    width: 0.1000  # eV
  

poisson solver:
  ecut: 4800.0  # eV

xc functional:
  name: None

convergence criteria:
- Maximum [total energy] change in last 3 cyles: 0.0005 eV / valence electron
- Maximum integral of absolute [dens]ity change: 0.0001 electrons / valence electron
- Maximum integral of absolute [eigenst]ate change: 4e-08 eV^2 / valence electron
maximum number of iterations: 333

#      iter     time        total  log10-change:
#                          energy   eigst   dens
# iter:   1 20:18:49   -14.961242                  +1.0,+0.0,+0.0
# iter:   2 20:19:09   -15.117180   -0.64  -1.42   +1.5,+0.0,-0.0
# iter:   3 20:19:29   -15.150258   -1.21  -1.46   +1.9,-0.0,+0.0
# iter:   4 20:19:50   -15.286547   -1.58  -1.56   +2.2,-0.0,-0.0
# iter:   5 20:20:10   -15.533215   -2.06  -1.68   +2.8,-0.0,+0.0
# iter:   6 20:20:30   -15.547073   -2.20  -2.08   +2.9,-0.0,-0.0
# iter:   7 20:20:50   -15.538640   -2.65  -2.30   +2.9,-0.0,+0.0
# iter:   8 20:21:10   -15.537590c  -3.55  -2.63   +2.9,-0.0,+0.0
# iter:   9 20:21:30   -15.541971c  -3.12  -2.75   +3.0,-0.0,+0.0
# iter:  10 20:21:51   -15.540247c  -3.77  -2.63   +3.0,-0.0,+0.0
# iter:  11 20:22:11   -15.540235c  -4.39  -3.53   +3.0,-0.0,+0.0
# iter:  12 20:22:30   -15.540263c  -4.84  -3.62   +3.0,-0.0,+0.0
# iter:  13 20:22:50   -15.540269c  -5.02  -3.71   +3.0,-0.0,+0.0
# iter:  14 20:23:10   -15.540262c  -5.37  -3.91   +3.0,-0.0,+0.0
# iter:  15 20:23:30   -15.540253c  -5.63  -3.99   +3.0,-0.0,-0.0
# iter:  16 20:23:50   -15.540258c  -5.90  -4.08c  +3.0,-0.0,+0.0
# iter:  17 20:24:10   -15.540257c  -6.22  -4.11c  +3.0,-0.0,-0.0
# iter:  18 20:24:31   -15.540260c  -6.48  -4.15c  +3.0,-0.0,-0.0
# iter:  19 20:24:51   -15.540265c  -6.54  -4.20c  +3.0,-0.0,-0.0
# iter:  20 20:25:11   -15.540266c  -6.91  -4.35c  +3.0,-0.0,-0.0
# iter:  21 20:25:31   -15.540270c  -6.99  -4.41c  +3.0,-0.0,-0.0
# iter:  22 20:25:51   -15.540273c  -7.25  -4.50c  +3.0,-0.0,-0.0
# iter:  23 20:26:11   -15.540274c  -7.61c -4.52c  +3.0,-0.0,-0.0
scf_steps: 23
energies:  # eV
  coulomb:          -3.839703
  zero:              0.045107
  xc:              -16.004826
  external:          0.000000
  kinetic:           4.265013
  spinorbit:         0.000000
  entropy:          -0.011730
  total:           -15.546139
  extrapolated:    -15.540274

dipole moment: [-5.097456, -8.828216, -10.114539]  # |e|*Ang

total magnetic moment: [2.982130, -0.000724, -0.000000]

local magnetic moments: [
  [ 2.636767, -0.000000,  0.000000],  # V  0
  [-0.027912,  0.008584, -0.000000],  # Br 1
  [-0.027897,  0.008630, -0.000000]]  # Br 2


Fermi level: -0.655 eV

kpt = [-0.417, -0.417, 0.000], weight = 0.007:
  Band      eig [eV]   occ [0-1]
     0       -65.410       1.000
   ...
    19        -5.098       1.000
    20        -5.023       1.000
    21        -5.020       1.000
    22        -4.929       1.000
    23        -4.822       1.000
    24        -1.694       1.000
    25        -1.170       0.994
    26        -1.166       0.994
    27        -0.070       0.003
    28         0.142       0.000
    29         0.367       0.000
    30         1.129       0.000
    31         1.206       0.000
    32         1.490       0.000
    33         1.686       0.000
    34         3.135       0.000
   ...
    41         6.021       0.000

kpt = [-0.417, -0.333, 0.000], weight = 0.007:
  Band      eig [eV]   occ [0-1]
     0       -65.410       1.000
   ...
    19        -5.228       1.000
    20        -5.130       1.000
    21        -4.982       1.000
    22        -4.951       1.000
    23        -4.790       1.000
    24        -1.519       1.000
    25        -1.234       0.997
    26        -1.163       0.994
    27        -0.114       0.004
    28         0.080       0.001
    29         0.684       0.000
    30         1.016       0.000
    31         1.145       0.000
    32         1.428       0.000
    33         1.594       0.000
    34         3.543       0.000
   ...
    41         6.030       0.000

kpt = [-0.417, -0.250, 0.000], weight = 0.007:
  Band      eig [eV]   occ [0-1]
     0       -65.410       1.000
   ...
    19        -5.253       1.000
    20        -5.140       1.000
    21        -5.002       1.000
    22        -4.935       1.000
    23        -4.779       1.000
    24        -1.510       1.000
    25        -1.238       0.997
    26        -1.163       0.994
    27        -0.127       0.005
    28         0.085       0.001
    29         0.684       0.000
    30         1.009       0.000
    31         1.143       0.000
    32         1.424       0.000
    33         1.597       0.000
    34         3.596       0.000
   ...
    41         6.151       0.000
(only showing first 3 out of 144 k-points)

Gap: 0.818 eV
Transition (v -> c):
  (s=0, k=125, n=26, [0.42, -0.00, 0.00]) -> (s=0, k=87, n=27, [0.17, -0.17, 0.00])
# Writing to gsq-28.gpw (mode='')

---

timing:  # [seconds]
  Total: 476.230  # ━━━━━━━━━━━━━━━━━━━━━━━━━━━━━━━━━━━━━━━━━━━━━━━━━━━━━━━━━
  Init:   14.542  # ━╸
  SCF:   461.122  # ━━━━━━━━━━━━━━━━━━━━━━━━━━━━━━━━━━━━━━━━━━━━━━━━━━━━━━━

Max RSS: 887.906  # MiB
