#  __  _  _
# | _ |_)|_||  |
# |__||  | ||/\| - 24.1.0

User:   s194113@n-62-29-20
Date:   Tue Apr 23 13:51:50 2024
Arch:   x86_64
Pid:    1040
CWD:    /zhome/87/8/147075/10302/10302_NM/VBr2/V_con
Python: 3.8.5
gpaw:   /zhome/87/8/147075/venv-name/gpaw/gpaw (10808453a8)
_gpaw:  /zhome/87/8/147075/venv-name/gpaw/
        _gpaw.cpython-38-x86_64-linux-gnu.so (10808453a8)
ase:    /zhome/87/8/147075/venv-name/ase/ase (version 3.23.0b1-c36115a2db)
numpy:  /zhome/87/8/147075/venv-name/lib/python3.8/site-packages/numpy (version 1.24.4)
scipy:  /zhome/87/8/147075/venv-name/lib/python3.8/site-packages/scipy (version 1.10.1)
libxc:  4.3.4
units:  Angstrom and eV
cores: 12
OpenMP: False
OMP_NUM_THREADS: 1

---
input parameters:
  kpts: 
    density: 6.0
    gamma: True
  magmoms: [[1, 0, 0], [0, 0, 0], [0, 0, 0]]
  mixer: 
    backend: 'pulay'
    beta: 0.05
    method: 'sum'
    nmaxold: 5
    weight: 100
  mode: 
    name: 'pw'
    ecut: 600
    qspiral: array([0.21428571, 0.21428571, 0.        ])
  parallel: 
    kpt: None
    domain: 1
    band: 1
    order: 'kdb'
    stridebands: False
    augment_grids: False
    sl_auto: False
    sl_default: None
    sl_diagonalize: None
    sl_inverse_cholesky: None
    sl_lcao: None
    sl_lrtddft: None
    use_elpa: False
    elpasolver: '2stage'
    buffer_size: None
    gpu: False
  symmetry: 
    point_group: False
    time_reversal: False
  xc: 
    name: 'LDA'

#                        
#                        
#                        
#                        
#                        
#              Br        
#                        
#        V               
#          Br            
#                        
#                        
#                        
#                        
#                        

atoms: [  # symbols, positions [Ang] and initial magnetic moments
  [  V, [   0.000000,    0.000000,    8.513573], [ 1.000,  0.000,  0.000]], # 0
  [ Br, [   1.920000,    1.108513,   10.027147], [ 0.000,  0.000,  0.000]], # 1
  [ Br, [  -0.000000,    2.217025,    7.000000], [ 0.000,  0.000,  0.000]]] # 2

cell: [  # Ang
#     x            y            z
  [   3.840000,    0.000000,    0.000000],
  [  -1.920000,    3.325538,    0.000000],
  [   0.000000,   -0.000000,   17.027147]]

periodic: [True      , True      , False     ]
lengths:  [  3.840000,   3.840000,  17.027147]  # Ang
angles:   [ 90.000000,  90.000000, 120.000000]

symmetry:
  number of symmetries: 1
  rotations: [
    [[ 1,  0,  0], [ 0,  1,  0], [ 0,  0,  1]]]

bz sampling:
  number of bz points: 144
  number of ibz points: 144
  monkhorst-pack size: [12, 12, 1]
  monkhorst-pack shift: [0.041666666666666664, 0.041666666666666664, 0.0]
  points and weights: [
    [[ -0.41666667,  -0.41666667,   0.00000000], 0.00694444],  # 0
    [[ -0.41666667,  -0.33333333,   0.00000000], 0.00694444],  # 1
    [[ -0.41666667,  -0.25000000,   0.00000000], 0.00694444],  # 2
    [[ -0.41666667,  -0.16666667,   0.00000000], 0.00694444],  # 3
    [[ -0.41666667,  -0.08333333,   0.00000000], 0.00694444],  # 4
    [[ -0.41666667,  -0.00000000,   0.00000000], 0.00694444],  # 5
    [[ -0.41666667,   0.08333333,   0.00000000], 0.00694444],  # 6
    [[ -0.41666667,   0.16666667,   0.00000000], 0.00694444],  # 7
    [[ -0.41666667,   0.25000000,   0.00000000], 0.00694444],  # 8
    [[ -0.41666667,   0.33333333,   0.00000000], 0.00694444],  # 9
    # ...
    [[  0.50000000,   0.50000000,   0.00000000], 0.00694444]]  # 143

plane wave coefficients: 7311
cutoff: 600.0 eV

spin-components: 4  # (non-collinear spins)
bands: 42
valence electrons: 27.0
spin-degeneracy: 1
dtype: complex128

memory:
    wave functions: 1_402_748_928  # bytes  (116_895_744 per core)

parallelization:
    kpt:    12
    domain: 1
    band:   1

density:
  components: 4
  grid points: [24 24 98]
  charge: 0.0  # |e|

potential:
  grid points: [24 24 98]

species:
  V:
    name: Vanadium
    id: 7939ce69e6bb5930668dfcf9bb1979c3
    Z: 23.0
    valence: 13
    core: 10
    charge: 0.0
    file: /zhome/86/d/1666/PAW/gpaw-setups-0.9.20000/V.LDA.gz
    compensation charges: {type: gauss,
                           rc: 0.37,
                           lmax: 2}
    cutoffs: {filter: 2.14,
              core: 0.96}
    valence states:
      #              energy  rcut
      - 3s(2.00)   -69.819   1.254
      - 4s(2.00)    -4.846   1.254
      - 3p(6.00)   -43.961   1.281
      - 4p(0.00)    -1.526   1.281
      - 3d(3.00)    -5.381   1.169
      -  d          21.830   1.169
  
    # Using partial waves for V as LCAO basis

  Br:
    name: Bromine
    id: 10a25bbcb3273ec7d8d7f6fc01d2618d
    Z: 35.0
    valence: 7
    core: 28
    charge: 0.0
    file: /zhome/86/d/1666/PAW/gpaw-setups-0.9.20000/Br.LDA.gz
    compensation charges: {type: gauss,
                           rc: 0.35,
                           lmax: 2}
    cutoffs: {filter: 1.98,
              core: 2.38}
    valence states:
      #              energy  rcut
      - 4s(2.00)   -20.306   1.111
      - 4p(5.00)    -8.003   1.111
      -  s           6.906   1.111
      -  p          19.208   1.111
      -  d           0.000   1.111
  
    # Using partial waves for Br as LCAO basis

Reference energy: -167392.690611  # eV

eigensolver:
  name: 'Davidson'
  niter: 2
  converge_bands: 'occupied'
Density mixing:
  Method: sum
  Backend: pulay
  Linear mixing parameter: 0.05
  old densities: 5
  Damping of long wavelength oscillations: 100
occupation numbers:
  Fermi-Dirac:
    width: 0.1000  # eV
  

poisson solver:
  ecut: 4800.0  # eV

xc functional:
  name: None

convergence criteria:
- Maximum [total energy] change in last 3 cyles: 0.0005 eV / valence electron
- Maximum integral of absolute [dens]ity change: 0.0001 electrons / valence electron
- Maximum integral of absolute [eigenst]ate change: 4e-08 eV^2 / valence electron
maximum number of iterations: 333

#      iter     time        total  log10-change:
#                          energy   eigst   dens
# iter:   1 13:52:26   -14.716351                  +1.0,+0.0,+0.0
# iter:   2 13:52:48   -15.165792   -0.12  -1.42   +1.4,-0.0,+0.0
# iter:   3 13:53:11   -15.228589   -0.93  -1.46   +1.8,-0.0,-0.0
# iter:   4 13:53:33   -15.352520   -1.45  -1.56   +2.0,-0.0,-0.0
# iter:   5 13:53:56   -15.572773   -1.98  -1.68   +2.5,-0.0,-0.0
# iter:   6 13:54:18   -15.575364   -2.25  -2.06   +2.6,-0.0,-0.0
# iter:   7 13:54:40   -15.576796c  -2.79  -2.25   +2.7,-0.0,-0.0
# iter:   8 13:55:03   -15.574629c  -3.27  -2.61   +2.7,-0.0,-0.0
# iter:   9 13:55:25   -15.577391c  -3.59  -2.73   +2.7,-0.0,-0.0
# iter:  10 13:55:47   -15.577038c  -3.74  -2.81   +2.8,-0.0,-0.0
# iter:  11 13:56:09   -15.577059c  -4.40  -3.62   +2.8,-0.0,-0.0
# iter:  12 13:56:32   -15.577070c  -4.77  -3.63   +2.8,-0.0,-0.0
# iter:  13 13:56:54   -15.577116c  -5.00  -3.66   +2.8,-0.0,-0.0
# iter:  14 13:57:16   -15.577109c  -5.30  -3.87   +2.8,-0.0,-0.0
# iter:  15 13:57:38   -15.577109c  -5.55  -3.97   +2.8,-0.0,-0.0
# iter:  16 13:58:01   -15.577135c  -5.71  -4.06c  +2.8,-0.0,-0.0
# iter:  17 13:58:23   -15.577135c  -5.92  -4.16c  +2.8,-0.0,-0.0
# iter:  18 13:58:45   -15.577135c  -6.20  -4.65c  +2.8,-0.0,-0.0
# iter:  19 13:59:07   -15.577136c  -6.49  -4.58c  +2.8,-0.0,-0.0
# iter:  20 13:59:29   -15.577136c  -6.73  -4.74c  +2.8,-0.0,-0.0
# iter:  21 13:59:52   -15.577135c  -6.95  -4.78c  +2.8,-0.0,-0.0
# iter:  22 14:00:14   -15.577135c  -7.20  -4.85c  +2.8,-0.0,-0.0
# iter:  23 14:00:36   -15.577134c  -7.39  -4.90c  +2.8,-0.0,-0.0
# iter:  24 14:00:58   -15.577133c  -7.65c -5.04c  +2.8,-0.0,-0.0
scf_steps: 24
energies:  # eV
  coulomb:          -3.127987
  zero:              0.047491
  xc:              -15.765833
  external:          0.000000
  kinetic:           3.273594
  spinorbit:         0.000000
  entropy:          -0.008798
  total:           -15.581532
  extrapolated:    -15.577133

dipole moment: [-4.792222, -8.300292, -9.972641]  # |e|*Ang

total magnetic moment: [2.769470, -0.001415, -0.000000]

local magnetic moments: [
  [ 2.565330, -0.000000, -0.000000],  # V  0
  [-0.003805,  0.016327, -0.000000],  # Br 1
  [-0.003655,  0.016361, -0.000000]]  # Br 2


Fermi level: -1.162 eV

kpt = [-0.417, -0.417, 0.000], weight = 0.007:
  Band      eig [eV]   occ [0-1]
     0       -65.919       1.000
   ...
    19        -5.489       1.000
    20        -5.417       1.000
    21        -5.414       1.000
    22        -5.302       1.000
    23        -5.279       1.000
    24        -2.127       1.000
    25        -1.731       0.997
    26        -1.691       0.995
    27        -0.517       0.002
    28        -0.436       0.001
    29         0.158       0.000
    30         0.568       0.000
    31         0.588       0.000
    32         1.014       0.000
    33         1.031       0.000
    34         2.516       0.000
   ...
    41         5.741       0.000

kpt = [-0.417, -0.333, 0.000], weight = 0.007:
  Band      eig [eV]   occ [0-1]
     0       -65.919       1.000
   ...
    19        -5.529       1.000
    20        -5.444       1.000
    21        -5.321       1.000
    22        -5.258       1.000
    23        -5.206       1.000
    24        -2.104       1.000
    25        -1.811       0.998
    26        -1.694       0.995
    27        -0.588       0.003
    28        -0.405       0.001
    29         0.258       0.000
    30         0.466       0.000
    31         0.591       0.000
    32         0.970       0.000
    33         1.053       0.000
    34         2.505       0.000
   ...
    41         5.751       0.000

kpt = [-0.417, -0.250, 0.000], weight = 0.007:
  Band      eig [eV]   occ [0-1]
     0       -65.919       1.000
   ...
    19        -5.582       1.000
    20        -5.436       1.000
    21        -5.378       1.000
    22        -5.181       1.000
    23        -5.084       1.000
    24        -1.989       1.000
    25        -1.928       1.000
    26        -1.678       0.994
    27        -0.582       0.003
    28        -0.478       0.001
    29         0.265       0.000
    30         0.358       0.000
    31         0.602       0.000
    32         0.916       0.000
    33         1.001       0.000
    34         2.774       0.000
   ...
    41         5.041       0.000
(only showing first 3 out of 144 k-points)

Gap: 0.852 eV
Transition (v -> c):
  (s=0, k=137, n=26, [0.50, -0.00, 0.00]) -> (s=0, k=76, n=27, [0.08, -0.08, 0.00])
# Writing to gsq-21.gpw (mode='')

---

timing:  # [seconds]
  Total: 551.392  # ━━━━━━━━━━━━━━━━━━━━━━━━━━━━━━━━━━━━━━━━━━━━━━━━━━━━━━━━━
  Init:   15.087  # ━╸
  SCF:   532.874  # ━━━━━━━━━━━━━━━━━━━━━━━━━━━━━━━━━━━━━━━━━━━━━━━━━━━━━━━

Max RSS: 942.672  # MiB
