#  __  _  _
# | _ |_)|_||  |
# |__||  | ||/\| - 24.1.0

User:   s194113@n-62-29-28
Date:   Sun Apr 21 17:58:29 2024
Arch:   x86_64
Pid:    14076
CWD:    /zhome/87/8/147075/10302/10302_NM/VBr2/V_con
Python: 3.8.5
gpaw:   /zhome/87/8/147075/venv-name/gpaw/gpaw (10808453a8)
_gpaw:  /zhome/87/8/147075/venv-name/gpaw/
        _gpaw.cpython-38-x86_64-linux-gnu.so (10808453a8)
ase:    /zhome/87/8/147075/venv-name/ase/ase (version 3.23.0b1-c36115a2db)
numpy:  /zhome/87/8/147075/venv-name/lib/python3.8/site-packages/numpy (version 1.24.4)
scipy:  /zhome/87/8/147075/venv-name/lib/python3.8/site-packages/scipy (version 1.10.1)
libxc:  4.3.4
units:  Angstrom and eV
cores: 12
OpenMP: False
OMP_NUM_THREADS: 1

---
input parameters:
  kpts: 
    density: 6.0
    gamma: True
  magmoms: [[1, 0, 0], [0, 0, 0], [0, 0, 0]]
  mixer: 
    backend: 'pulay'
    beta: 0.05
    method: 'sum'
    nmaxold: 5
    weight: 100
  mode: 
    name: 'pw'
    ecut: 600
    qspiral: array([0.47222222, 0.05555556, 0.        ])
  parallel: 
    kpt: None
    domain: 1
    band: 1
    order: 'kdb'
    stridebands: False
    augment_grids: False
    sl_auto: False
    sl_default: None
    sl_diagonalize: None
    sl_inverse_cholesky: None
    sl_lcao: None
    sl_lrtddft: None
    use_elpa: False
    elpasolver: '2stage'
    buffer_size: None
    gpu: False
  symmetry: 
    point_group: False
    time_reversal: False
  xc: 
    name: 'LDA'

#                        
#                        
#                        
#                        
#                        
#              Br        
#                        
#        V               
#          Br            
#                        
#                        
#                        
#                        
#                        

atoms: [  # symbols, positions [Ang] and initial magnetic moments
  [  V, [   0.000000,    0.000000,    7.513573], [ 1.000,  0.000,  0.000]], # 0
  [ Br, [   1.920000,    1.108513,    9.027147], [ 0.000,  0.000,  0.000]], # 1
  [ Br, [  -0.000000,    2.217025,    6.000000], [ 0.000,  0.000,  0.000]]] # 2

cell: [  # Ang
#     x            y            z
  [   3.840000,    0.000000,    0.000000],
  [  -1.920000,    3.325538,    0.000000],
  [   0.000000,   -0.000000,   15.027147]]

periodic: [True      , True      , False     ]
lengths:  [  3.840000,   3.840000,  15.027147]  # Ang
angles:   [ 90.000000,  90.000000, 120.000000]

symmetry:
  number of symmetries: 1
  rotations: [
    [[ 1,  0,  0], [ 0,  1,  0], [ 0,  0,  1]]]

bz sampling:
  number of bz points: 144
  number of ibz points: 144
  monkhorst-pack size: [12, 12, 1]
  monkhorst-pack shift: [0.041666666666666664, 0.041666666666666664, 0.0]
  points and weights: [
    [[ -0.41666667,  -0.41666667,   0.00000000], 0.00694444],  # 0
    [[ -0.41666667,  -0.33333333,   0.00000000], 0.00694444],  # 1
    [[ -0.41666667,  -0.25000000,   0.00000000], 0.00694444],  # 2
    [[ -0.41666667,  -0.16666667,   0.00000000], 0.00694444],  # 3
    [[ -0.41666667,  -0.08333333,   0.00000000], 0.00694444],  # 4
    [[ -0.41666667,  -0.00000000,   0.00000000], 0.00694444],  # 5
    [[ -0.41666667,   0.08333333,   0.00000000], 0.00694444],  # 6
    [[ -0.41666667,   0.16666667,   0.00000000], 0.00694444],  # 7
    [[ -0.41666667,   0.25000000,   0.00000000], 0.00694444],  # 8
    [[ -0.41666667,   0.33333333,   0.00000000], 0.00694444],  # 9
    # ...
    [[  0.50000000,   0.50000000,   0.00000000], 0.00694444]]  # 143

plane wave coefficients: 6439
cutoff: 600.0 eV

spin-components: 4  # (non-collinear spins)
bands: 42
valence electrons: 27.0
spin-degeneracy: 1
dtype: complex128

memory:
    wave functions: 1_238_243_328  # bytes  (103_186_944 per core)

parallelization:
    kpt:    12
    domain: 1
    band:   1

density:
  components: 4
  grid points: [24 24 90]
  charge: 0.0  # |e|

potential:
  grid points: [24 24 90]

species:
  V:
    name: Vanadium
    id: 7939ce69e6bb5930668dfcf9bb1979c3
    Z: 23.0
    valence: 13
    core: 10
    charge: 0.0
    file: /zhome/86/d/1666/PAW/gpaw-setups-0.9.20000/V.LDA.gz
    compensation charges: {type: gauss,
                           rc: 0.37,
                           lmax: 2}
    cutoffs: {filter: 2.14,
              core: 0.96}
    valence states:
      #              energy  rcut
      - 3s(2.00)   -69.819   1.254
      - 4s(2.00)    -4.846   1.254
      - 3p(6.00)   -43.961   1.281
      - 4p(0.00)    -1.526   1.281
      - 3d(3.00)    -5.381   1.169
      -  d          21.830   1.169
  
    # Using partial waves for V as LCAO basis

  Br:
    name: Bromine
    id: 10a25bbcb3273ec7d8d7f6fc01d2618d
    Z: 35.0
    valence: 7
    core: 28
    charge: 0.0
    file: /zhome/86/d/1666/PAW/gpaw-setups-0.9.20000/Br.LDA.gz
    compensation charges: {type: gauss,
                           rc: 0.35,
                           lmax: 2}
    cutoffs: {filter: 1.98,
              core: 2.38}
    valence states:
      #              energy  rcut
      - 4s(2.00)   -20.306   1.111
      - 4p(5.00)    -8.003   1.111
      -  s           6.906   1.111
      -  p          19.208   1.111
      -  d           0.000   1.111
  
    # Using partial waves for Br as LCAO basis

Reference energy: -167392.690611  # eV

eigensolver:
  name: 'Davidson'
  niter: 2
  converge_bands: 'occupied'
Density mixing:
  Method: sum
  Backend: pulay
  Linear mixing parameter: 0.05
  old densities: 5
  Damping of long wavelength oscillations: 100
occupation numbers:
  Fermi-Dirac:
    width: 0.1000  # eV
  

poisson solver:
  ecut: 4800.0  # eV

xc functional:
  name: None

convergence criteria:
- Maximum [total energy] change in last 3 cyles: 0.0005 eV / valence electron
- Maximum integral of absolute [dens]ity change: 0.0001 electrons / valence electron
- Maximum integral of absolute [eigenst]ate change: 4e-08 eV^2 / valence electron
maximum number of iterations: 333

#      iter     time        total  log10-change:
#                          energy   eigst   dens
# iter:   1 17:59:02   -14.440069                  +1.0,+0.0,+0.0
# iter:   2 17:59:22   -15.132572   +0.09  -1.42   +1.4,-0.0,+0.0
# iter:   3 17:59:43   -15.225559   -0.73  -1.46   +1.7,-0.0,-0.0
# iter:   4 18:00:03   -15.355807   -1.32  -1.55   +1.9,-0.0,+0.0
# iter:   5 18:00:24   -15.571807   -1.88  -1.67   +2.4,-0.0,+0.0
# iter:   6 18:00:44   -15.577598   -2.13  -2.02   +2.5,-0.0,+0.0
# iter:   7 18:01:05   -15.582499c  -2.48  -2.26   +2.6,-0.0,+0.0
# iter:   8 18:01:25   -15.577690c  -2.95  -2.50   +2.6,-0.0,+0.0
# iter:   9 18:01:46   -15.578976c  -3.69  -2.70   +2.6,-0.0,+0.0
# iter:  10 18:02:06   -15.580112c  -3.88  -2.92   +2.6,-0.0,+0.0
# iter:  11 18:02:27   -15.580151c  -4.33  -3.59   +2.7,-0.0,+0.0
# iter:  12 18:02:47   -15.580163c  -4.64  -3.63   +2.7,-0.0,+0.0
# iter:  13 18:03:07   -15.580238c  -4.86  -3.66   +2.7,-0.0,+0.0
# iter:  14 18:03:28   -15.580238c  -5.15  -3.80   +2.7,-0.0,+0.0
# iter:  15 18:03:48   -15.580235c  -5.40  -3.85   +2.7,-0.0,+0.0
# iter:  16 18:04:08   -15.580233c  -5.68  -3.87   +2.7,-0.0,+0.0
# iter:  17 18:04:29   -15.580227c  -5.92  -3.90   +2.7,-0.0,+0.0
# iter:  18 18:04:49   -15.580219c  -6.18  -3.94   +2.7,-0.0,+0.0
# iter:  19 18:05:09   -15.580217c  -6.34  -3.99   +2.7,-0.0,+0.0
# iter:  20 18:05:29   -15.580219c  -6.64  -4.08c  +2.7,-0.0,+0.0
# iter:  21 18:05:49   -15.580228c  -6.70  -4.12c  +2.7,-0.0,+0.0
# iter:  22 18:06:10   -15.580229c  -7.00  -4.25c  +2.7,-0.0,+0.0
# iter:  23 18:06:30   -15.580228c  -6.78  -4.29c  +2.7,-0.0,+0.0
# iter:  24 18:06:50   -15.580228c  -7.39  -4.69c  +2.7,-0.0,+0.0
# iter:  25 18:07:10   -15.580229c  -7.61c -4.77c  +2.7,-0.0,+0.0
scf_steps: 25
energies:  # eV
  coulomb:          -3.069097
  zero:              0.047979
  xc:              -15.731033
  external:          0.000000
  kinetic:           3.176600
  spinorbit:         0.000000
  entropy:          -0.009354
  total:           -15.584906
  extrapolated:    -15.580229

dipole moment: [-4.437954, -8.220390, -8.137050]  # |e|*Ang

total magnetic moment: [2.667428, -0.000068, 0.000000]

local magnetic moments: [
  [ 2.552289,  0.000000,  0.000000],  # V  0
  [ 0.008933,  0.000015,  0.000000],  # Br 1
  [-0.008795,  0.001566,  0.000000]]  # Br 2


Fermi level: -0.776 eV

kpt = [-0.417, -0.417, 0.000], weight = 0.007:
  Band      eig [eV]   occ [0-1]
     0       -65.510       1.000
   ...
    19        -5.126       1.000
    20        -5.052       1.000
    21        -4.932       1.000
    22        -4.863       1.000
    23        -4.693       1.000
    24        -1.626       1.000
    25        -1.456       0.999
    26        -1.242       0.991
    27        -0.171       0.002
    28        -0.017       0.001
    29         0.691       0.000
    30         0.710       0.000
    31         1.057       0.000
    32         1.329       0.000
    33         1.458       0.000
    34         3.146       0.000
   ...
    41         5.763       0.000

kpt = [-0.417, -0.333, 0.000], weight = 0.007:
  Band      eig [eV]   occ [0-1]
     0       -65.510       1.000
   ...
    19        -5.146       1.000
    20        -4.994       1.000
    21        -4.723       1.000
    22        -4.653       1.000
    23        -4.584       1.000
    24        -1.648       1.000
    25        -1.457       0.999
    26        -1.294       0.994
    27        -0.253       0.005
    28         0.003       0.000
    29         0.688       0.000
    30         0.765       0.000
    31         0.974       0.000
    32         1.202       0.000
    33         1.422       0.000
    34         3.091       0.000
   ...
    41         5.536       0.000

kpt = [-0.417, -0.250, 0.000], weight = 0.007:
  Band      eig [eV]   occ [0-1]
     0       -65.511       1.000
   ...
    19        -5.089       1.000
    20        -4.885       1.000
    21        -4.634       1.000
    22        -4.522       1.000
    23        -4.469       1.000
    24        -1.582       1.000
    25        -1.407       0.998
    26        -1.403       0.998
    27        -0.297       0.008
    28        -0.070       0.001
    29         0.691       0.000
    30         0.755       0.000
    31         0.852       0.000
    32         1.093       0.000
    33         1.305       0.000
    34         3.393       0.000
   ...
    41         5.286       0.000
(only showing first 3 out of 144 k-points)

Gap: 0.826 eV
Transition (v -> c):
  (s=0, k=71, n=26, [-0.00, 0.50, 0.00]) -> (s=0, k=68, n=27, [-0.00, 0.25, 0.00])
# Writing to gsq-11.gpw (mode='')

---

timing:  # [seconds]
  Total: 522.236  # ━━━━━━━━━━━━━━━━━━━━━━━━━━━━━━━━━━━━━━━━━━━━━━━━━━━━━━━━━
  Init:   14.324  # ━╸
  SCF:   507.314  # ━━━━━━━━━━━━━━━━━━━━━━━━━━━━━━━━━━━━━━━━━━━━━━━━━━━━━━━╸

Max RSS: 579.699  # MiB
