#  __  _  _
# | _ |_)|_||  |
# |__||  | ||/\| - 24.1.0

User:   s194113@n-62-29-20
Date:   Tue Apr 23 13:14:42 2024
Arch:   x86_64
Pid:    1040
CWD:    /zhome/87/8/147075/10302/10302_NM/VBr2/V_con
Python: 3.8.5
gpaw:   /zhome/87/8/147075/venv-name/gpaw/gpaw (10808453a8)
_gpaw:  /zhome/87/8/147075/venv-name/gpaw/
        _gpaw.cpython-38-x86_64-linux-gnu.so (10808453a8)
ase:    /zhome/87/8/147075/venv-name/ase/ase (version 3.23.0b1-c36115a2db)
numpy:  /zhome/87/8/147075/venv-name/lib/python3.8/site-packages/numpy (version 1.24.4)
scipy:  /zhome/87/8/147075/venv-name/lib/python3.8/site-packages/scipy (version 1.10.1)
libxc:  4.3.4
units:  Angstrom and eV
cores: 12
OpenMP: False
OMP_NUM_THREADS: 1

---
input parameters:
  kpts: 
    density: 6.0
    gamma: True
  magmoms: [[1, 0, 0], [0, 0, 0], [0, 0, 0]]
  mixer: 
    backend: 'pulay'
    beta: 0.05
    method: 'sum'
    nmaxold: 5
    weight: 100
  mode: 
    name: 'pw'
    ecut: 600
    qspiral: array([0.30952381, 0.30952381, 0.        ])
  parallel: 
    kpt: None
    domain: 1
    band: 1
    order: 'kdb'
    stridebands: False
    augment_grids: False
    sl_auto: False
    sl_default: None
    sl_diagonalize: None
    sl_inverse_cholesky: None
    sl_lcao: None
    sl_lrtddft: None
    use_elpa: False
    elpasolver: '2stage'
    buffer_size: None
    gpu: False
  symmetry: 
    point_group: False
    time_reversal: False
  xc: 
    name: 'LDA'

#                        
#                        
#                        
#                        
#                        
#              Br        
#                        
#        V               
#          Br            
#                        
#                        
#                        
#                        
#                        

atoms: [  # symbols, positions [Ang] and initial magnetic moments
  [  V, [   0.000000,    0.000000,    8.513573], [ 1.000,  0.000,  0.000]], # 0
  [ Br, [   1.920000,    1.108513,   10.027147], [ 0.000,  0.000,  0.000]], # 1
  [ Br, [  -0.000000,    2.217025,    7.000000], [ 0.000,  0.000,  0.000]]] # 2

cell: [  # Ang
#     x            y            z
  [   3.840000,    0.000000,    0.000000],
  [  -1.920000,    3.325538,    0.000000],
  [   0.000000,   -0.000000,   17.027147]]

periodic: [True      , True      , False     ]
lengths:  [  3.840000,   3.840000,  17.027147]  # Ang
angles:   [ 90.000000,  90.000000, 120.000000]

symmetry:
  number of symmetries: 1
  rotations: [
    [[ 1,  0,  0], [ 0,  1,  0], [ 0,  0,  1]]]

bz sampling:
  number of bz points: 144
  number of ibz points: 144
  monkhorst-pack size: [12, 12, 1]
  monkhorst-pack shift: [0.041666666666666664, 0.041666666666666664, 0.0]
  points and weights: [
    [[ -0.41666667,  -0.41666667,   0.00000000], 0.00694444],  # 0
    [[ -0.41666667,  -0.33333333,   0.00000000], 0.00694444],  # 1
    [[ -0.41666667,  -0.25000000,   0.00000000], 0.00694444],  # 2
    [[ -0.41666667,  -0.16666667,   0.00000000], 0.00694444],  # 3
    [[ -0.41666667,  -0.08333333,   0.00000000], 0.00694444],  # 4
    [[ -0.41666667,  -0.00000000,   0.00000000], 0.00694444],  # 5
    [[ -0.41666667,   0.08333333,   0.00000000], 0.00694444],  # 6
    [[ -0.41666667,   0.16666667,   0.00000000], 0.00694444],  # 7
    [[ -0.41666667,   0.25000000,   0.00000000], 0.00694444],  # 8
    [[ -0.41666667,   0.33333333,   0.00000000], 0.00694444],  # 9
    # ...
    [[  0.50000000,   0.50000000,   0.00000000], 0.00694444]]  # 143

plane wave coefficients: 7311
cutoff: 600.0 eV

spin-components: 4  # (non-collinear spins)
bands: 42
valence electrons: 27.0
spin-degeneracy: 1
dtype: complex128

memory:
    wave functions: 1_402_748_928  # bytes  (116_895_744 per core)

parallelization:
    kpt:    12
    domain: 1
    band:   1

density:
  components: 4
  grid points: [24 24 98]
  charge: 0.0  # |e|

potential:
  grid points: [24 24 98]

species:
  V:
    name: Vanadium
    id: 7939ce69e6bb5930668dfcf9bb1979c3
    Z: 23.0
    valence: 13
    core: 10
    charge: 0.0
    file: /zhome/86/d/1666/PAW/gpaw-setups-0.9.20000/V.LDA.gz
    compensation charges: {type: gauss,
                           rc: 0.37,
                           lmax: 2}
    cutoffs: {filter: 2.14,
              core: 0.96}
    valence states:
      #              energy  rcut
      - 3s(2.00)   -69.819   1.254
      - 4s(2.00)    -4.846   1.254
      - 3p(6.00)   -43.961   1.281
      - 4p(0.00)    -1.526   1.281
      - 3d(3.00)    -5.381   1.169
      -  d          21.830   1.169
  
    # Using partial waves for V as LCAO basis

  Br:
    name: Bromine
    id: 10a25bbcb3273ec7d8d7f6fc01d2618d
    Z: 35.0
    valence: 7
    core: 28
    charge: 0.0
    file: /zhome/86/d/1666/PAW/gpaw-setups-0.9.20000/Br.LDA.gz
    compensation charges: {type: gauss,
                           rc: 0.35,
                           lmax: 2}
    cutoffs: {filter: 1.98,
              core: 2.38}
    valence states:
      #              energy  rcut
      - 4s(2.00)   -20.306   1.111
      - 4p(5.00)    -8.003   1.111
      -  s           6.906   1.111
      -  p          19.208   1.111
      -  d           0.000   1.111
  
    # Using partial waves for Br as LCAO basis

Reference energy: -167392.690611  # eV

eigensolver:
  name: 'Davidson'
  niter: 2
  converge_bands: 'occupied'
Density mixing:
  Method: sum
  Backend: pulay
  Linear mixing parameter: 0.05
  old densities: 5
  Damping of long wavelength oscillations: 100
occupation numbers:
  Fermi-Dirac:
    width: 0.1000  # eV
  

poisson solver:
  ecut: 4800.0  # eV

xc functional:
  name: None

convergence criteria:
- Maximum [total energy] change in last 3 cyles: 0.0005 eV / valence electron
- Maximum integral of absolute [dens]ity change: 0.0001 electrons / valence electron
- Maximum integral of absolute [eigenst]ate change: 4e-08 eV^2 / valence electron
maximum number of iterations: 333

#      iter     time        total  log10-change:
#                          energy   eigst   dens
# iter:   1 13:15:18   -14.327847                  +1.0,+0.0,+0.0
# iter:   2 13:15:41   -15.130696   +0.16  -1.43   +1.4,-0.0,+0.0
# iter:   3 13:16:03   -15.237498   -0.66  -1.46   +1.6,-0.0,+0.0
# iter:   4 13:16:26   -15.365478   -1.28  -1.55   +1.9,-0.0,+0.0
# iter:   5 13:16:48   -15.582872   -1.82  -1.67   +2.3,-0.0,+0.0
# iter:   6 13:17:10   -15.584648   -2.05  -2.00   +2.5,-0.0,+0.0
# iter:   7 13:17:33   -15.590818c  -2.34  -2.26   +2.5,-0.0,+0.0
# iter:   8 13:17:55   -15.584985c  -2.86  -2.50   +2.5,-0.0,+0.0
# iter:   9 13:18:18   -15.586627c  -3.62  -2.70   +2.6,-0.0,+0.0
# iter:  10 13:18:40   -15.587382c  -3.88  -2.98   +2.6,-0.0,+0.0
# iter:  11 13:19:02   -15.587456c  -4.24  -3.59   +2.6,-0.0,-0.0
# iter:  12 13:19:25   -15.587471c  -4.54  -3.67   +2.6,-0.0,+0.0
# iter:  13 13:19:47   -15.587516c  -4.78  -3.70   +2.6,-0.0,-0.0
# iter:  14 13:20:09   -15.587538c  -5.02  -3.81   +2.6,-0.0,+0.0
# iter:  15 13:20:32   -15.587540c  -5.28  -4.01c  +2.6,-0.0,+0.0
# iter:  16 13:20:54   -15.587541c  -5.55  -4.17c  +2.6,-0.0,+0.0
# iter:  17 13:21:16   -15.587539c  -5.79  -4.20c  +2.6,-0.0,-0.0
# iter:  18 13:21:38   -15.587534c  -6.02  -4.23c  +2.6,-0.0,-0.0
# iter:  19 13:22:00   -15.587534c  -6.23  -4.25c  +2.6,-0.0,+0.0
# iter:  20 13:22:23   -15.587535c  -6.43  -4.33c  +2.6,-0.0,+0.0
# iter:  21 13:22:45   -15.587535c  -6.64  -4.45c  +2.6,-0.0,-0.0
# iter:  22 13:23:07   -15.587535c  -6.88  -4.76c  +2.6,-0.0,+0.0
# iter:  23 13:23:29   -15.587535c  -7.06  -4.85c  +2.6,-0.0,+0.0
# iter:  24 13:23:51   -15.587536c  -7.30  -5.07c  +2.6,-0.0,-0.0
# iter:  25 13:24:13   -15.587535c  -7.54c -5.10c  +2.6,-0.0,-0.0
scf_steps: 25
energies:  # eV
  coulomb:          -2.928576
  zero:              0.046632
  xc:              -15.696057
  external:          0.000000
  kinetic:           2.994701
  spinorbit:         0.000000
  entropy:          -0.008471
  total:           -15.591771
  extrapolated:    -15.587535

dipole moment: [-4.598973, -7.965461, -8.846816]  # |e|*Ang

total magnetic moment: [2.625729, -0.000241, -0.000000]

local magnetic moments: [
  [ 2.543675,  0.000000,  0.000000],  # V  0
  [ 0.001041,  0.002858, -0.000000],  # Br 1
  [ 0.001181,  0.002803,  0.000000]]  # Br 2


Fermi level: -1.192 eV

kpt = [-0.417, -0.417, 0.000], weight = 0.007:
  Band      eig [eV]   occ [0-1]
     0       -65.945       1.000
   ...
    19        -5.616       1.000
    20        -5.542       1.000
    21        -5.441       1.000
    22        -5.360       1.000
    23        -5.206       1.000
    24        -1.984       1.000
    25        -1.809       0.998
    26        -1.735       0.996
    27        -0.593       0.002
    28        -0.490       0.001
    29         0.320       0.000
    30         0.431       0.000
    31         0.483       0.000
    32         0.928       0.000
    33         0.956       0.000
    34         2.839       0.000
   ...
    41         5.722       0.000

kpt = [-0.417, -0.333, 0.000], weight = 0.007:
  Band      eig [eV]   occ [0-1]
     0       -65.945       1.000
   ...
    19        -5.531       1.000
    20        -5.387       1.000
    21        -5.335       1.000
    22        -5.268       1.000
    23        -5.041       1.000
    24        -2.086       1.000
    25        -1.873       0.999
    26        -1.745       0.996
    27        -0.622       0.003
    28        -0.462       0.001
    29         0.246       0.000
    30         0.410       0.000
    31         0.491       0.000
    32         0.906       0.000
    33         0.976       0.000
    34         2.553       0.000
   ...
    41         5.080       0.000

kpt = [-0.417, -0.250, 0.000], weight = 0.007:
  Band      eig [eV]   occ [0-1]
     0       -65.945       1.000
   ...
    19        -5.435       1.000
    20        -5.228       1.000
    21        -5.182       1.000
    22        -5.096       1.000
    23        -4.894       1.000
    24        -2.115       1.000
    25        -1.978       1.000
    26        -1.712       0.995
    27        -0.603       0.003
    28        -0.508       0.001
    29         0.156       0.000
    30         0.322       0.000
    31         0.541       0.000
    32         0.863       0.000
    33         0.918       0.000
    34         2.524       0.000
   ...
    41         4.836       0.000
(only showing first 3 out of 144 k-points)

Gap: 0.852 eV
Transition (v -> c):
  (s=0, k=137, n=26, [0.50, -0.00, 0.00]) -> (s=0, k=115, n=27, [0.33, 0.17, 0.00])
# Writing to gsq-17.gpw (mode='')

---

timing:  # [seconds]
  Total: 572.702  # ━━━━━━━━━━━━━━━━━━━━━━━━━━━━━━━━━━━━━━━━━━━━━━━━━━━━━━━━━
  Init:   15.021  # ━╸
  SCF:   555.987  # ━━━━━━━━━━━━━━━━━━━━━━━━━━━━━━━━━━━━━━━━━━━━━━━━━━━━━━━╸

Max RSS: 696.746  # MiB
