#  __  _  _
# | _ |_)|_||  |
# |__||  | ||/\| - 24.1.0

User:   s194113@n-62-29-28
Date:   Sun Apr 21 17:41:55 2024
Arch:   x86_64
Pid:    14076
CWD:    /zhome/87/8/147075/10302/10302_NM/VBr2/V_con
Python: 3.8.5
gpaw:   /zhome/87/8/147075/venv-name/gpaw/gpaw (10808453a8)
_gpaw:  /zhome/87/8/147075/venv-name/gpaw/
        _gpaw.cpython-38-x86_64-linux-gnu.so (10808453a8)
ase:    /zhome/87/8/147075/venv-name/ase/ase (version 3.23.0b1-c36115a2db)
numpy:  /zhome/87/8/147075/venv-name/lib/python3.8/site-packages/numpy (version 1.24.4)
scipy:  /zhome/87/8/147075/venv-name/lib/python3.8/site-packages/scipy (version 1.10.1)
libxc:  4.3.4
units:  Angstrom and eV
cores: 12
OpenMP: False
OMP_NUM_THREADS: 1

---
input parameters:
  kpts: 
    density: 6.0
    gamma: True
  magmoms: [[1, 0, 0], [0, 0, 0], [0, 0, 0]]
  mixer: 
    backend: 'pulay'
    beta: 0.05
    method: 'sum'
    nmaxold: 5
    weight: 100
  mode: 
    name: 'pw'
    ecut: 600
    qspiral: array([0.45, 0.  , 0.  ])
  parallel: 
    kpt: None
    domain: 1
    band: 1
    order: 'kdb'
    stridebands: False
    augment_grids: False
    sl_auto: False
    sl_default: None
    sl_diagonalize: None
    sl_inverse_cholesky: None
    sl_lcao: None
    sl_lrtddft: None
    use_elpa: False
    elpasolver: '2stage'
    buffer_size: None
    gpu: False
  symmetry: 
    point_group: False
    time_reversal: False
  xc: 
    name: 'LDA'

#                        
#                        
#                        
#                        
#                        
#              Br        
#                        
#        V               
#          Br            
#                        
#                        
#                        
#                        
#                        

atoms: [  # symbols, positions [Ang] and initial magnetic moments
  [  V, [   0.000000,    0.000000,    7.513573], [ 1.000,  0.000,  0.000]], # 0
  [ Br, [   1.920000,    1.108513,    9.027147], [ 0.000,  0.000,  0.000]], # 1
  [ Br, [  -0.000000,    2.217025,    6.000000], [ 0.000,  0.000,  0.000]]] # 2

cell: [  # Ang
#     x            y            z
  [   3.840000,    0.000000,    0.000000],
  [  -1.920000,    3.325538,    0.000000],
  [   0.000000,   -0.000000,   15.027147]]

periodic: [True      , True      , False     ]
lengths:  [  3.840000,   3.840000,  15.027147]  # Ang
angles:   [ 90.000000,  90.000000, 120.000000]

symmetry:
  number of symmetries: 1
  rotations: [
    [[ 1,  0,  0], [ 0,  1,  0], [ 0,  0,  1]]]

bz sampling:
  number of bz points: 144
  number of ibz points: 144
  monkhorst-pack size: [12, 12, 1]
  monkhorst-pack shift: [0.041666666666666664, 0.041666666666666664, 0.0]
  points and weights: [
    [[ -0.41666667,  -0.41666667,   0.00000000], 0.00694444],  # 0
    [[ -0.41666667,  -0.33333333,   0.00000000], 0.00694444],  # 1
    [[ -0.41666667,  -0.25000000,   0.00000000], 0.00694444],  # 2
    [[ -0.41666667,  -0.16666667,   0.00000000], 0.00694444],  # 3
    [[ -0.41666667,  -0.08333333,   0.00000000], 0.00694444],  # 4
    [[ -0.41666667,  -0.00000000,   0.00000000], 0.00694444],  # 5
    [[ -0.41666667,   0.08333333,   0.00000000], 0.00694444],  # 6
    [[ -0.41666667,   0.16666667,   0.00000000], 0.00694444],  # 7
    [[ -0.41666667,   0.25000000,   0.00000000], 0.00694444],  # 8
    [[ -0.41666667,   0.33333333,   0.00000000], 0.00694444],  # 9
    # ...
    [[  0.50000000,   0.50000000,   0.00000000], 0.00694444]]  # 143

plane wave coefficients: 6439
cutoff: 600.0 eV

spin-components: 4  # (non-collinear spins)
bands: 42
valence electrons: 27.0
spin-degeneracy: 1
dtype: complex128

memory:
    wave functions: 1_238_243_328  # bytes  (103_186_944 per core)

parallelization:
    kpt:    12
    domain: 1
    band:   1

density:
  components: 4
  grid points: [24 24 90]
  charge: 0.0  # |e|

potential:
  grid points: [24 24 90]

species:
  V:
    name: Vanadium
    id: 7939ce69e6bb5930668dfcf9bb1979c3
    Z: 23.0
    valence: 13
    core: 10
    charge: 0.0
    file: /zhome/86/d/1666/PAW/gpaw-setups-0.9.20000/V.LDA.gz
    compensation charges: {type: gauss,
                           rc: 0.37,
                           lmax: 2}
    cutoffs: {filter: 2.14,
              core: 0.96}
    valence states:
      #              energy  rcut
      - 3s(2.00)   -69.819   1.254
      - 4s(2.00)    -4.846   1.254
      - 3p(6.00)   -43.961   1.281
      - 4p(0.00)    -1.526   1.281
      - 3d(3.00)    -5.381   1.169
      -  d          21.830   1.169
  
    # Using partial waves for V as LCAO basis

  Br:
    name: Bromine
    id: 10a25bbcb3273ec7d8d7f6fc01d2618d
    Z: 35.0
    valence: 7
    core: 28
    charge: 0.0
    file: /zhome/86/d/1666/PAW/gpaw-setups-0.9.20000/Br.LDA.gz
    compensation charges: {type: gauss,
                           rc: 0.35,
                           lmax: 2}
    cutoffs: {filter: 1.98,
              core: 2.38}
    valence states:
      #              energy  rcut
      - 4s(2.00)   -20.306   1.111
      - 4p(5.00)    -8.003   1.111
      -  s           6.906   1.111
      -  p          19.208   1.111
      -  d           0.000   1.111
  
    # Using partial waves for Br as LCAO basis

Reference energy: -167392.690611  # eV

eigensolver:
  name: 'Davidson'
  niter: 2
  converge_bands: 'occupied'
Density mixing:
  Method: sum
  Backend: pulay
  Linear mixing parameter: 0.05
  old densities: 5
  Damping of long wavelength oscillations: 100
occupation numbers:
  Fermi-Dirac:
    width: 0.1000  # eV
  

poisson solver:
  ecut: 4800.0  # eV

xc functional:
  name: None

convergence criteria:
- Maximum [total energy] change in last 3 cyles: 0.0005 eV / valence electron
- Maximum integral of absolute [dens]ity change: 0.0001 electrons / valence electron
- Maximum integral of absolute [eigenst]ate change: 4e-08 eV^2 / valence electron
maximum number of iterations: 333

#      iter     time        total  log10-change:
#                          energy   eigst   dens
# iter:   1 17:42:29   -14.568071                  +1.0,+0.0,+0.0
# iter:   2 17:42:49   -15.149157   +0.01  -1.42   +1.4,-0.0,+0.0
# iter:   3 17:43:10   -15.226849   -0.82  -1.46   +1.7,-0.0,+0.0
# iter:   4 17:43:30   -15.354221   -1.38  -1.55   +1.9,-0.0,-0.0
# iter:   5 17:43:51   -15.572852   -1.93  -1.68   +2.4,-0.0,+0.0
# iter:   6 17:44:11   -15.576496   -2.18  -2.04   +2.5,-0.0,+0.0
# iter:   7 17:44:32   -15.580649c  -2.60  -2.25   +2.6,-0.0,+0.0
# iter:   8 17:44:52   -15.576303c  -3.05  -2.51   +2.6,-0.0,+0.0
# iter:   9 17:45:12   -15.577810c  -3.73  -2.71   +2.7,-0.0,+0.0
# iter:  10 17:45:33   -15.578818c  -3.95  -2.94   +2.7,-0.0,+0.0
# iter:  11 17:45:53   -15.578848c  -4.41  -3.62   +2.7,-0.0,+0.0
# iter:  12 17:46:13   -15.578852c  -4.74  -3.63   +2.7,-0.0,+0.0
# iter:  13 17:46:33   -15.578884c  -4.99  -3.64   +2.7,-0.0,+0.0
# iter:  14 17:46:53   -15.578904c  -5.25  -3.85   +2.7,-0.0,+0.0
# iter:  15 17:47:13   -15.578925c  -5.47  -3.98   +2.7,-0.0,+0.0
# iter:  16 17:47:33   -15.578927c  -5.78  -4.08c  +2.7,-0.0,-0.0
# iter:  17 17:47:54   -15.578919c  -5.97  -4.04c  +2.7,-0.0,+0.0
# iter:  18 17:48:14   -15.578921c  -6.23  -4.08c  +2.7,-0.0,+0.0
# iter:  19 17:48:34   -15.578930c  -6.35  -4.14c  +2.7,-0.0,-0.0
# iter:  20 17:48:54   -15.578929c  -6.59  -4.31c  +2.7,-0.0,+0.0
# iter:  21 17:49:14   -15.578930c  -6.81  -4.39c  +2.7,-0.0,-0.0
# iter:  22 17:49:35   -15.578931c  -7.11  -4.58c  +2.7,-0.0,+0.0
# iter:  23 17:49:55   -15.578931c  -7.22  -4.66c  +2.7,-0.0,+0.0
# iter:  24 17:50:15   -15.578930c  -7.58c -4.90c  +2.7,-0.0,+0.0
scf_steps: 24
energies:  # eV
  coulomb:          -3.082380
  zero:              0.047232
  xc:              -15.742316
  external:          0.000000
  kinetic:           3.203247
  spinorbit:         0.000000
  entropy:          -0.009429
  total:           -15.583645
  extrapolated:    -15.578930

dipole moment: [-4.494640, -8.345803, -8.426638]  # |e|*Ang

total magnetic moment: [2.709992, -0.000498, 0.000000]

local magnetic moments: [
  [ 2.556390, -0.000000,  0.000000],  # V  0
  [ 0.008078,  0.007127,  0.000000],  # Br 1
  [-0.009885,  0.004282,  0.000000]]  # Br 2


Fermi level: -0.772 eV

kpt = [-0.417, -0.417, 0.000], weight = 0.007:
  Band      eig [eV]   occ [0-1]
     0       -65.507       1.000
   ...
    19        -5.107       1.000
    20        -4.999       1.000
    21        -4.917       1.000
    22        -4.780       1.000
    23        -4.669       1.000
    24        -1.671       1.000
    25        -1.439       0.999
    26        -1.234       0.990
    27        -0.164       0.002
    28        -0.009       0.000
    29         0.627       0.000
    30         0.754       0.000
    31         1.071       0.000
    32         1.339       0.000
    33         1.460       0.000
    34         3.061       0.000
   ...
    41         5.796       0.000

kpt = [-0.417, -0.333, 0.000], weight = 0.007:
  Band      eig [eV]   occ [0-1]
     0       -65.507       1.000
   ...
    19        -5.143       1.000
    20        -5.027       1.000
    21        -4.793       1.000
    22        -4.646       1.000
    23        -4.559       1.000
    24        -1.640       1.000
    25        -1.440       0.999
    26        -1.292       0.994
    27        -0.244       0.005
    28         0.002       0.000
    29         0.694       0.000
    30         0.792       0.000
    31         0.973       0.000
    32         1.212       0.000
    33         1.427       0.000
    34         3.131       0.000
   ...
    41         5.858       0.000

kpt = [-0.417, -0.250, 0.000], weight = 0.007:
  Band      eig [eV]   occ [0-1]
     0       -65.508       1.000
   ...
    19        -5.157       1.000
    20        -4.997       1.000
    21        -4.704       1.000
    22        -4.605       1.000
    23        -4.458       1.000
    24        -1.518       0.999
    25        -1.418       0.998
    26        -1.393       0.998
    27        -0.291       0.008
    28        -0.071       0.001
    29         0.730       0.000
    30         0.760       0.000
    31         0.864       0.000
    32         1.112       0.000
    33         1.328       0.000
    34         3.508       0.000
   ...
    41         5.397       0.000
(only showing first 3 out of 144 k-points)

Gap: 0.815 eV
Transition (v -> c):
  (s=0, k=137, n=26, [0.50, -0.00, 0.00]) -> (s=0, k=62, n=27, [-0.00, -0.25, 0.00])
# Writing to gsq-09.gpw (mode='')

---

timing:  # [seconds]
  Total: 500.330  # ━━━━━━━━━━━━━━━━━━━━━━━━━━━━━━━━━━━━━━━━━━━━━━━━━━━━━━━━━
  Init:   14.348  # ━╸
  SCF:   485.417  # ━━━━━━━━━━━━━━━━━━━━━━━━━━━━━━━━━━━━━━━━━━━━━━━━━━━━━━━╸

Max RSS: 555.449  # MiB
