#  __  _  _
# | _ |_)|_||  |
# |__||  | ||/\| - 24.1.0

User:   s194113@n-62-29-28
Date:   Sun Apr 21 19:39:17 2024
Arch:   x86_64
Pid:    14076
CWD:    /zhome/87/8/147075/10302/10302_NM/VBr2/V_con
Python: 3.8.5
gpaw:   /zhome/87/8/147075/venv-name/gpaw/gpaw (10808453a8)
_gpaw:  /zhome/87/8/147075/venv-name/gpaw/
        _gpaw.cpython-38-x86_64-linux-gnu.so (10808453a8)
ase:    /zhome/87/8/147075/venv-name/ase/ase (version 3.23.0b1-c36115a2db)
numpy:  /zhome/87/8/147075/venv-name/lib/python3.8/site-packages/numpy (version 1.24.4)
scipy:  /zhome/87/8/147075/venv-name/lib/python3.8/site-packages/scipy (version 1.10.1)
libxc:  4.3.4
units:  Angstrom and eV
cores: 12
OpenMP: False
OMP_NUM_THREADS: 1

---
input parameters:
  kpts: 
    density: 6.0
    gamma: True
  magmoms: [[1, 0, 0], [0, 0, 0], [0, 0, 0]]
  mixer: 
    backend: 'pulay'
    beta: 0.05
    method: 'sum'
    nmaxold: 5
    weight: 100
  mode: 
    name: 'pw'
    ecut: 600
    qspiral: array([0.16666667, 0.16666667, 0.        ])
  parallel: 
    kpt: None
    domain: 1
    band: 1
    order: 'kdb'
    stridebands: False
    augment_grids: False
    sl_auto: False
    sl_default: None
    sl_diagonalize: None
    sl_inverse_cholesky: None
    sl_lcao: None
    sl_lrtddft: None
    use_elpa: False
    elpasolver: '2stage'
    buffer_size: None
    gpu: False
  symmetry: 
    point_group: False
    time_reversal: False
  xc: 
    name: 'LDA'

#                        
#                        
#                        
#                        
#                        
#              Br        
#                        
#        V               
#          Br            
#                        
#                        
#                        
#                        
#                        

atoms: [  # symbols, positions [Ang] and initial magnetic moments
  [  V, [   0.000000,    0.000000,    7.513573], [ 1.000,  0.000,  0.000]], # 0
  [ Br, [   1.920000,    1.108513,    9.027147], [ 0.000,  0.000,  0.000]], # 1
  [ Br, [  -0.000000,    2.217025,    6.000000], [ 0.000,  0.000,  0.000]]] # 2

cell: [  # Ang
#     x            y            z
  [   3.840000,    0.000000,    0.000000],
  [  -1.920000,    3.325538,    0.000000],
  [   0.000000,   -0.000000,   15.027147]]

periodic: [True      , True      , False     ]
lengths:  [  3.840000,   3.840000,  15.027147]  # Ang
angles:   [ 90.000000,  90.000000, 120.000000]

symmetry:
  number of symmetries: 1
  rotations: [
    [[ 1,  0,  0], [ 0,  1,  0], [ 0,  0,  1]]]

bz sampling:
  number of bz points: 144
  number of ibz points: 144
  monkhorst-pack size: [12, 12, 1]
  monkhorst-pack shift: [0.041666666666666664, 0.041666666666666664, 0.0]
  points and weights: [
    [[ -0.41666667,  -0.41666667,   0.00000000], 0.00694444],  # 0
    [[ -0.41666667,  -0.33333333,   0.00000000], 0.00694444],  # 1
    [[ -0.41666667,  -0.25000000,   0.00000000], 0.00694444],  # 2
    [[ -0.41666667,  -0.16666667,   0.00000000], 0.00694444],  # 3
    [[ -0.41666667,  -0.08333333,   0.00000000], 0.00694444],  # 4
    [[ -0.41666667,  -0.00000000,   0.00000000], 0.00694444],  # 5
    [[ -0.41666667,   0.08333333,   0.00000000], 0.00694444],  # 6
    [[ -0.41666667,   0.16666667,   0.00000000], 0.00694444],  # 7
    [[ -0.41666667,   0.25000000,   0.00000000], 0.00694444],  # 8
    [[ -0.41666667,   0.33333333,   0.00000000], 0.00694444],  # 9
    # ...
    [[  0.50000000,   0.50000000,   0.00000000], 0.00694444]]  # 143

plane wave coefficients: 6439
cutoff: 600.0 eV

spin-components: 4  # (non-collinear spins)
bands: 42
valence electrons: 27.0
spin-degeneracy: 1
dtype: complex128

memory:
    wave functions: 1_238_243_328  # bytes  (103_186_944 per core)

parallelization:
    kpt:    12
    domain: 1
    band:   1

density:
  components: 4
  grid points: [24 24 90]
  charge: 0.0  # |e|

potential:
  grid points: [24 24 90]

species:
  V:
    name: Vanadium
    id: 7939ce69e6bb5930668dfcf9bb1979c3
    Z: 23.0
    valence: 13
    core: 10
    charge: 0.0
    file: /zhome/86/d/1666/PAW/gpaw-setups-0.9.20000/V.LDA.gz
    compensation charges: {type: gauss,
                           rc: 0.37,
                           lmax: 2}
    cutoffs: {filter: 2.14,
              core: 0.96}
    valence states:
      #              energy  rcut
      - 3s(2.00)   -69.819   1.254
      - 4s(2.00)    -4.846   1.254
      - 3p(6.00)   -43.961   1.281
      - 4p(0.00)    -1.526   1.281
      - 3d(3.00)    -5.381   1.169
      -  d          21.830   1.169
  
    # Using partial waves for V as LCAO basis

  Br:
    name: Bromine
    id: 10a25bbcb3273ec7d8d7f6fc01d2618d
    Z: 35.0
    valence: 7
    core: 28
    charge: 0.0
    file: /zhome/86/d/1666/PAW/gpaw-setups-0.9.20000/Br.LDA.gz
    compensation charges: {type: gauss,
                           rc: 0.35,
                           lmax: 2}
    cutoffs: {filter: 1.98,
              core: 2.38}
    valence states:
      #              energy  rcut
      - 4s(2.00)   -20.306   1.111
      - 4p(5.00)    -8.003   1.111
      -  s           6.906   1.111
      -  p          19.208   1.111
      -  d           0.000   1.111
  
    # Using partial waves for Br as LCAO basis

Reference energy: -167392.690611  # eV

eigensolver:
  name: 'Davidson'
  niter: 2
  converge_bands: 'occupied'
Density mixing:
  Method: sum
  Backend: pulay
  Linear mixing parameter: 0.05
  old densities: 5
  Damping of long wavelength oscillations: 100
occupation numbers:
  Fermi-Dirac:
    width: 0.1000  # eV
  

poisson solver:
  ecut: 4800.0  # eV

xc functional:
  name: None

convergence criteria:
- Maximum [total energy] change in last 3 cyles: 0.0005 eV / valence electron
- Maximum integral of absolute [dens]ity change: 0.0001 electrons / valence electron
- Maximum integral of absolute [eigenst]ate change: 4e-08 eV^2 / valence electron
maximum number of iterations: 333

#      iter     time        total  log10-change:
#                          energy   eigst   dens
# iter:   1 19:39:50   -14.830177                  +1.0,+0.0,+0.0
# iter:   2 19:40:11   -15.159360   -0.28  -1.42   +1.5,-0.0,+0.0
# iter:   3 19:40:31   -15.209968   -1.04  -1.46   +1.8,-0.0,-0.0
# iter:   4 19:40:51   -15.336452   -1.52  -1.56   +2.1,-0.0,-0.0
# iter:   5 19:41:12   -15.561707   -2.04  -1.68   +2.6,-0.0,-0.0
# iter:   6 19:41:32   -15.567254   -2.31  -2.07   +2.7,-0.0,-0.0
# iter:   7 19:41:52   -15.566289c  -2.83  -2.26   +2.8,-0.0,-0.0
# iter:   8 19:42:12   -15.564818c  -3.41  -2.63   +2.8,-0.0,+0.0
# iter:   9 19:42:32   -15.568299c  -3.45  -2.73   +2.8,-0.0,-0.0
# iter:  10 19:42:53   -15.567203c  -3.80  -2.65   +2.8,-0.0,-0.0
# iter:  11 19:43:13   -15.567208c  -4.50  -3.60   +2.8,-0.0,-0.0
# iter:  12 19:43:33   -15.567250c  -4.88  -3.63   +2.8,-0.0,-0.0
# iter:  13 19:43:53   -15.567271c  -5.11  -3.67   +2.8,-0.0,-0.0
# iter:  14 19:44:13   -15.567268c  -5.39  -3.76   +2.8,-0.0,-0.0
# iter:  15 19:44:33   -15.567261c  -5.65  -3.78   +2.8,-0.0,-0.0
# iter:  16 19:44:53   -15.567268c  -5.84  -3.82   +2.8,-0.0,-0.0
# iter:  17 19:45:13   -15.567266c  -6.18  -4.06c  +2.8,-0.0,-0.0
# iter:  18 19:45:33   -15.567270c  -6.45  -4.10c  +2.8,-0.0,-0.0
# iter:  19 19:45:53   -15.567276c  -6.54  -4.14c  +2.8,-0.0,-0.0
# iter:  20 19:46:14   -15.567273c  -6.78  -4.22c  +2.8,-0.0,-0.0
# iter:  21 19:46:34   -15.567273c  -6.83  -4.26c  +2.8,-0.0,-0.0
# iter:  22 19:46:54   -15.567272c  -7.31  -4.42c  +2.8,-0.0,-0.0
# iter:  23 19:47:14   -15.567272c  -7.51c -4.55c  +2.8,-0.0,-0.0
scf_steps: 23
energies:  # eV
  coulomb:          -3.323105
  zero:              0.047850
  xc:              -15.833284
  external:          0.000000
  kinetic:           3.545869
  spinorbit:         0.000000
  entropy:          -0.009205
  total:           -15.571874
  extrapolated:    -15.567272

dipole moment: [-4.886208, -8.463010, -9.250844]  # |e|*Ang

total magnetic moment: [2.840209, -0.001690, -0.000000]

local magnetic moments: [
  [ 2.585542,  0.000000, -0.000000],  # V  0
  [-0.011380,  0.019574, -0.000000],  # Br 1
  [-0.011261,  0.019642, -0.000000]]  # Br 2


Fermi level: -0.705 eV

kpt = [-0.417, -0.417, 0.000], weight = 0.007:
  Band      eig [eV]   occ [0-1]
     0       -65.468       1.000
   ...
    19        -5.071       1.000
    20        -4.982       1.000
    21        -4.920       1.000
    22        -4.885       1.000
    23        -4.823       1.000
    24        -1.734       1.000
    25        -1.260       0.996
    26        -1.234       0.995
    27        -0.029       0.001
    28        -0.009       0.001
    29         0.511       0.000
    30         1.066       0.000
    31         1.067       0.000
    32         1.464       0.000
    33         1.527       0.000
    34         2.898       0.000
   ...
    41         6.096       0.000

kpt = [-0.417, -0.333, 0.000], weight = 0.007:
  Band      eig [eV]   occ [0-1]
     0       -65.468       1.000
   ...
    19        -5.087       1.000
    20        -5.050       1.000
    21        -4.971       1.000
    22        -4.864       1.000
    23        -4.826       1.000
    24        -1.631       1.000
    25        -1.342       0.998
    26        -1.235       0.995
    27        -0.110       0.003
    28         0.003       0.001
    29         0.690       0.000
    30         0.931       0.000
    31         1.069       0.000
    32         1.429       0.000
    33         1.491       0.000
    34         3.051       0.000
   ...
    41         6.178       0.000

kpt = [-0.417, -0.250, 0.000], weight = 0.007:
  Band      eig [eV]   occ [0-1]
     0       -65.468       1.000
   ...
    19        -5.178       1.000
    20        -5.100       1.000
    21        -5.075       1.000
    22        -4.783       1.000
    23        -4.733       1.000
    24        -1.537       1.000
    25        -1.413       0.999
    26        -1.227       0.995
    27        -0.146       0.004
    28        -0.023       0.001
    29         0.698       0.000
    30         0.857       0.000
    31         1.067       0.000
    32         1.368       0.000
    33         1.488       0.000
    34         3.347       0.000
   ...
    41         5.635       0.000
(only showing first 3 out of 144 k-points)

Gap: 0.881 eV
Transition (v -> c):
  (s=0, k=137, n=26, [0.50, -0.00, 0.00]) -> (s=0, k=54, n=27, [-0.08, 0.08, 0.00])
# Writing to gsq-23.gpw (mode='')

---

timing:  # [seconds]
  Total: 478.113  # ━━━━━━━━━━━━━━━━━━━━━━━━━━━━━━━━━━━━━━━━━━━━━━━━━━━━━━━━━
  Init:   14.363  # ━╸
  SCF:   463.183  # ━━━━━━━━━━━━━━━━━━━━━━━━━━━━━━━━━━━━━━━━━━━━━━━━━━━━━━━

Max RSS: 887.906  # MiB
