#  __  _  _
# | _ |_)|_||  |
# |__||  | ||/\| - 24.1.0

User:   s194113@n-62-29-20
Date:   Tue Apr 23 12:07:01 2024
Arch:   x86_64
Pid:    1040
CWD:    /zhome/87/8/147075/10302/10302_NM/VBr2/V_con
Python: 3.8.5
gpaw:   /zhome/87/8/147075/venv-name/gpaw/gpaw (10808453a8)
_gpaw:  /zhome/87/8/147075/venv-name/gpaw/
        _gpaw.cpython-38-x86_64-linux-gnu.so (10808453a8)
ase:    /zhome/87/8/147075/venv-name/ase/ase (version 3.23.0b1-c36115a2db)
numpy:  /zhome/87/8/147075/venv-name/lib/python3.8/site-packages/numpy (version 1.24.4)
scipy:  /zhome/87/8/147075/venv-name/lib/python3.8/site-packages/scipy (version 1.10.1)
libxc:  4.3.4
units:  Angstrom and eV
cores: 12
OpenMP: False
OMP_NUM_THREADS: 1

---
input parameters:
  kpts: 
    density: 6.0
    gamma: True
  magmoms: [[1, 0, 0], [0, 0, 0], [0, 0, 0]]
  mixer: 
    backend: 'pulay'
    beta: 0.05
    method: 'sum'
    nmaxold: 5
    weight: 100
  mode: 
    name: 'pw'
    ecut: 600
    qspiral: array([0.5, 0. , 0. ])
  parallel: 
    kpt: None
    domain: 1
    band: 1
    order: 'kdb'
    stridebands: False
    augment_grids: False
    sl_auto: False
    sl_default: None
    sl_diagonalize: None
    sl_inverse_cholesky: None
    sl_lcao: None
    sl_lrtddft: None
    use_elpa: False
    elpasolver: '2stage'
    buffer_size: None
    gpu: False
  symmetry: 
    point_group: False
    time_reversal: False
  xc: 
    name: 'LDA'

#                        
#                        
#                        
#                        
#                        
#              Br        
#                        
#        V               
#          Br            
#                        
#                        
#                        
#                        
#                        

atoms: [  # symbols, positions [Ang] and initial magnetic moments
  [  V, [   0.000000,    0.000000,    8.513573], [ 1.000,  0.000,  0.000]], # 0
  [ Br, [   1.920000,    1.108513,   10.027147], [ 0.000,  0.000,  0.000]], # 1
  [ Br, [  -0.000000,    2.217025,    7.000000], [ 0.000,  0.000,  0.000]]] # 2

cell: [  # Ang
#     x            y            z
  [   3.840000,    0.000000,    0.000000],
  [  -1.920000,    3.325538,    0.000000],
  [   0.000000,   -0.000000,   17.027147]]

periodic: [True      , True      , False     ]
lengths:  [  3.840000,   3.840000,  17.027147]  # Ang
angles:   [ 90.000000,  90.000000, 120.000000]

symmetry:
  number of symmetries: 1
  rotations: [
    [[ 1,  0,  0], [ 0,  1,  0], [ 0,  0,  1]]]

bz sampling:
  number of bz points: 144
  number of ibz points: 144
  monkhorst-pack size: [12, 12, 1]
  monkhorst-pack shift: [0.041666666666666664, 0.041666666666666664, 0.0]
  points and weights: [
    [[ -0.41666667,  -0.41666667,   0.00000000], 0.00694444],  # 0
    [[ -0.41666667,  -0.33333333,   0.00000000], 0.00694444],  # 1
    [[ -0.41666667,  -0.25000000,   0.00000000], 0.00694444],  # 2
    [[ -0.41666667,  -0.16666667,   0.00000000], 0.00694444],  # 3
    [[ -0.41666667,  -0.08333333,   0.00000000], 0.00694444],  # 4
    [[ -0.41666667,  -0.00000000,   0.00000000], 0.00694444],  # 5
    [[ -0.41666667,   0.08333333,   0.00000000], 0.00694444],  # 6
    [[ -0.41666667,   0.16666667,   0.00000000], 0.00694444],  # 7
    [[ -0.41666667,   0.25000000,   0.00000000], 0.00694444],  # 8
    [[ -0.41666667,   0.33333333,   0.00000000], 0.00694444],  # 9
    # ...
    [[  0.50000000,   0.50000000,   0.00000000], 0.00694444]]  # 143

plane wave coefficients: 7311
cutoff: 600.0 eV

spin-components: 4  # (non-collinear spins)
bands: 42
valence electrons: 27.0
spin-degeneracy: 1
dtype: complex128

memory:
    wave functions: 1_402_748_928  # bytes  (116_895_744 per core)

parallelization:
    kpt:    12
    domain: 1
    band:   1

density:
  components: 4
  grid points: [24 24 98]
  charge: 0.0  # |e|

potential:
  grid points: [24 24 98]

species:
  V:
    name: Vanadium
    id: 7939ce69e6bb5930668dfcf9bb1979c3
    Z: 23.0
    valence: 13
    core: 10
    charge: 0.0
    file: /zhome/86/d/1666/PAW/gpaw-setups-0.9.20000/V.LDA.gz
    compensation charges: {type: gauss,
                           rc: 0.37,
                           lmax: 2}
    cutoffs: {filter: 2.14,
              core: 0.96}
    valence states:
      #              energy  rcut
      - 3s(2.00)   -69.819   1.254
      - 4s(2.00)    -4.846   1.254
      - 3p(6.00)   -43.961   1.281
      - 4p(0.00)    -1.526   1.281
      - 3d(3.00)    -5.381   1.169
      -  d          21.830   1.169
  
    # Using partial waves for V as LCAO basis

  Br:
    name: Bromine
    id: 10a25bbcb3273ec7d8d7f6fc01d2618d
    Z: 35.0
    valence: 7
    core: 28
    charge: 0.0
    file: /zhome/86/d/1666/PAW/gpaw-setups-0.9.20000/Br.LDA.gz
    compensation charges: {type: gauss,
                           rc: 0.35,
                           lmax: 2}
    cutoffs: {filter: 1.98,
              core: 2.38}
    valence states:
      #              energy  rcut
      - 4s(2.00)   -20.306   1.111
      - 4p(5.00)    -8.003   1.111
      -  s           6.906   1.111
      -  p          19.208   1.111
      -  d           0.000   1.111
  
    # Using partial waves for Br as LCAO basis

Reference energy: -167392.690611  # eV

eigensolver:
  name: 'Davidson'
  niter: 2
  converge_bands: 'occupied'
Density mixing:
  Method: sum
  Backend: pulay
  Linear mixing parameter: 0.05
  old densities: 5
  Damping of long wavelength oscillations: 100
occupation numbers:
  Fermi-Dirac:
    width: 0.1000  # eV
  

poisson solver:
  ecut: 4800.0  # eV

xc functional:
  name: None

convergence criteria:
- Maximum [total energy] change in last 3 cyles: 0.0005 eV / valence electron
- Maximum integral of absolute [dens]ity change: 0.0001 electrons / valence electron
- Maximum integral of absolute [eigenst]ate change: 4e-08 eV^2 / valence electron
maximum number of iterations: 333

#      iter     time        total  log10-change:
#                          energy   eigst   dens
# iter:   1 12:07:37   -14.447086                  +1.0,+0.0,+0.0
# iter:   2 12:08:00   -15.132572   +0.09  -1.42   +1.4,-0.0,-0.0
# iter:   3 12:08:22   -15.224528   -0.74  -1.46   +1.7,-0.0,-0.0
# iter:   4 12:08:44   -15.354576   -1.33  -1.55   +1.9,-0.0,+0.0
# iter:   5 12:09:06   -15.571002   -1.88  -1.67   +2.4,-0.0,+0.0
# iter:   6 12:09:29   -15.576941   -2.13  -2.02   +2.5,-0.0,-0.0
# iter:   7 12:09:51   -15.581952c  -2.46  -2.25   +2.6,-0.0,-0.0
# iter:   8 12:10:13   -15.577092c  -2.94  -2.49   +2.6,-0.0,-0.0
# iter:   9 12:10:36   -15.578246c  -3.66  -2.70   +2.6,-0.0,-0.0
# iter:  10 12:10:58   -15.579538c  -3.83  -2.89   +2.7,+0.0,-0.0
# iter:  11 12:11:20   -15.579580c  -4.29  -3.57   +2.7,+0.0,-0.0
# iter:  12 12:11:42   -15.579588c  -4.60  -3.63   +2.7,+0.0,+0.0
# iter:  13 12:12:05   -15.579665c  -4.82  -3.66   +2.7,+0.0,+0.0
# iter:  14 12:12:27   -15.579666c  -5.09  -3.78   +2.7,+0.0,+0.0
# iter:  15 12:12:49   -15.579662c  -5.35  -3.84   +2.7,+0.0,+0.0
# iter:  16 12:13:11   -15.579661c  -5.61  -3.86   +2.7,+0.0,+0.0
# iter:  17 12:13:33   -15.579656c  -5.85  -3.90   +2.7,+0.0,+0.0
# iter:  18 12:13:55   -15.579647c  -6.10  -3.94   +2.7,-0.0,-0.0
# iter:  19 12:14:17   -15.579650c  -6.18  -3.99   +2.7,-0.0,-0.0
# iter:  20 12:14:40   -15.579649c  -6.53  -4.15c  +2.7,-0.0,+0.0
# iter:  21 12:15:02   -15.579651c  -6.68  -4.17c  +2.7,-0.0,+0.0
# iter:  22 12:15:24   -15.579653c  -6.91  -4.21c  +2.7,-0.0,+0.0
# iter:  23 12:15:46   -15.579656c  -6.51  -4.30c  +2.7,+0.0,+0.0
# iter:  24 12:16:08   -15.579656c  -6.98  -4.30c  +2.7,-0.0,-0.0
# iter:  25 12:16:30   -15.579657c  -7.31  -4.80c  +2.7,-0.0,-0.0
# iter:  26 12:16:52   -15.579658c  -7.67c -4.98c  +2.7,-0.0,+0.0
scf_steps: 26
energies:  # eV
  coulomb:          -3.069022
  zero:              0.047056
  xc:              -15.736264
  external:          0.000000
  kinetic:           3.183295
  spinorbit:         0.000000
  entropy:          -0.009445
  total:           -15.584380
  extrapolated:    -15.579658

dipole moment: [-4.412992, -8.268654, -9.236608]  # |e|*Ang

total magnetic moment: [2.671220, -0.000000, 0.000000]

local magnetic moments: [
  [ 2.554137,  0.000000,  0.000000],  # V  0
  [ 0.009189, -0.000001, -0.000000],  # Br 1
  [-0.009189, -0.000001, -0.000000]]  # Br 2


Fermi level: -1.202 eV

kpt = [-0.417, -0.417, 0.000], weight = 0.007:
  Band      eig [eV]   occ [0-1]
     0       -65.935       1.000
   ...
    19        -5.541       1.000
    20        -5.437       1.000
    21        -5.357       1.000
    22        -5.230       1.000
    23        -5.062       1.000
    24        -2.066       1.000
    25        -1.904       0.999
    26        -1.657       0.990
    27        -0.602       0.002
    28        -0.439       0.000
    29         0.243       0.000
    30         0.265       0.000
    31         0.642       0.000
    32         0.898       0.000
    33         1.035       0.000
    34         2.709       0.000
   ...
    41         5.188       0.000

kpt = [-0.417, -0.333, 0.000], weight = 0.007:
  Band      eig [eV]   occ [0-1]
     0       -65.935       1.000
   ...
    19        -5.572       1.000
    20        -5.428       1.000
    21        -5.183       1.000
    22        -5.032       1.000
    23        -4.951       1.000
    24        -2.062       1.000
    25        -1.911       0.999
    26        -1.708       0.994
    27        -0.685       0.006
    28        -0.422       0.000
    29         0.255       0.000
    30         0.323       0.000
    31         0.562       0.000
    32         0.760       0.000
    33         1.000       0.000
    34         2.719       0.000
   ...
    41         5.187       0.000

kpt = [-0.417, -0.250, 0.000], weight = 0.007:
  Band      eig [eV]   occ [0-1]
     0       -65.935       1.000
   ...
    19        -5.528       1.000
    20        -5.342       1.000
    21        -5.037       1.000
    22        -4.981       1.000
    23        -4.846       1.000
    24        -1.978       1.000
    25        -1.856       0.999
    26        -1.823       0.998
    27        -0.731       0.009
    28        -0.496       0.001
    29         0.284       0.000
    30         0.318       0.000
    31         0.421       0.000
    32         0.652       0.000
    33         0.881       0.000
    34         2.982       0.000
   ...
    41         4.836       0.000
(only showing first 3 out of 144 k-points)

Gap: 0.843 eV
Transition (v -> c):
  (s=0, k=137, n=26, [0.50, -0.00, 0.00]) -> (s=0, k=62, n=27, [-0.00, -0.25, 0.00])
# Writing to gsq-10.gpw (mode='')

---

timing:  # [seconds]
  Total: 591.788  # ━━━━━━━━━━━━━━━━━━━━━━━━━━━━━━━━━━━━━━━━━━━━━━━━━━━━━━━━━
  Init:   15.198  # ━╸
  SCF:   575.912  # ━━━━━━━━━━━━━━━━━━━━━━━━━━━━━━━━━━━━━━━━━━━━━━━━━━━━━━━╸

Max RSS: 586.621  # MiB
