#  __  _  _
# | _ |_)|_||  |
# |__||  | ||/\| - 24.1.0

User:   s194113@n-62-29-20
Date:   Tue Apr 23 11:49:04 2024
Arch:   x86_64
Pid:    1040
CWD:    /zhome/87/8/147075/10302/10302_NM/VBr2/V_con
Python: 3.8.5
gpaw:   /zhome/87/8/147075/venv-name/gpaw/gpaw (10808453a8)
_gpaw:  /zhome/87/8/147075/venv-name/gpaw/
        _gpaw.cpython-38-x86_64-linux-gnu.so (10808453a8)
ase:    /zhome/87/8/147075/venv-name/ase/ase (version 3.23.0b1-c36115a2db)
numpy:  /zhome/87/8/147075/venv-name/lib/python3.8/site-packages/numpy (version 1.24.4)
scipy:  /zhome/87/8/147075/venv-name/lib/python3.8/site-packages/scipy (version 1.10.1)
libxc:  4.3.4
units:  Angstrom and eV
cores: 12
OpenMP: False
OMP_NUM_THREADS: 1

---
input parameters:
  kpts: 
    density: 6.0
    gamma: True
  magmoms: [[1, 0, 0], [0, 0, 0], [0, 0, 0]]
  mixer: 
    backend: 'pulay'
    beta: 0.05
    method: 'sum'
    nmaxold: 5
    weight: 100
  mode: 
    name: 'pw'
    ecut: 600
    qspiral: array([0.4, 0. , 0. ])
  parallel: 
    kpt: None
    domain: 1
    band: 1
    order: 'kdb'
    stridebands: False
    augment_grids: False
    sl_auto: False
    sl_default: None
    sl_diagonalize: None
    sl_inverse_cholesky: None
    sl_lcao: None
    sl_lrtddft: None
    use_elpa: False
    elpasolver: '2stage'
    buffer_size: None
    gpu: False
  symmetry: 
    point_group: False
    time_reversal: False
  xc: 
    name: 'LDA'

#                        
#                        
#                        
#                        
#                        
#              Br        
#                        
#        V               
#          Br            
#                        
#                        
#                        
#                        
#                        

atoms: [  # symbols, positions [Ang] and initial magnetic moments
  [  V, [   0.000000,    0.000000,    8.513573], [ 1.000,  0.000,  0.000]], # 0
  [ Br, [   1.920000,    1.108513,   10.027147], [ 0.000,  0.000,  0.000]], # 1
  [ Br, [  -0.000000,    2.217025,    7.000000], [ 0.000,  0.000,  0.000]]] # 2

cell: [  # Ang
#     x            y            z
  [   3.840000,    0.000000,    0.000000],
  [  -1.920000,    3.325538,    0.000000],
  [   0.000000,   -0.000000,   17.027147]]

periodic: [True      , True      , False     ]
lengths:  [  3.840000,   3.840000,  17.027147]  # Ang
angles:   [ 90.000000,  90.000000, 120.000000]

symmetry:
  number of symmetries: 1
  rotations: [
    [[ 1,  0,  0], [ 0,  1,  0], [ 0,  0,  1]]]

bz sampling:
  number of bz points: 144
  number of ibz points: 144
  monkhorst-pack size: [12, 12, 1]
  monkhorst-pack shift: [0.041666666666666664, 0.041666666666666664, 0.0]
  points and weights: [
    [[ -0.41666667,  -0.41666667,   0.00000000], 0.00694444],  # 0
    [[ -0.41666667,  -0.33333333,   0.00000000], 0.00694444],  # 1
    [[ -0.41666667,  -0.25000000,   0.00000000], 0.00694444],  # 2
    [[ -0.41666667,  -0.16666667,   0.00000000], 0.00694444],  # 3
    [[ -0.41666667,  -0.08333333,   0.00000000], 0.00694444],  # 4
    [[ -0.41666667,  -0.00000000,   0.00000000], 0.00694444],  # 5
    [[ -0.41666667,   0.08333333,   0.00000000], 0.00694444],  # 6
    [[ -0.41666667,   0.16666667,   0.00000000], 0.00694444],  # 7
    [[ -0.41666667,   0.25000000,   0.00000000], 0.00694444],  # 8
    [[ -0.41666667,   0.33333333,   0.00000000], 0.00694444],  # 9
    # ...
    [[  0.50000000,   0.50000000,   0.00000000], 0.00694444]]  # 143

plane wave coefficients: 7311
cutoff: 600.0 eV

spin-components: 4  # (non-collinear spins)
bands: 42
valence electrons: 27.0
spin-degeneracy: 1
dtype: complex128

memory:
    wave functions: 1_402_748_928  # bytes  (116_895_744 per core)

parallelization:
    kpt:    12
    domain: 1
    band:   1

density:
  components: 4
  grid points: [24 24 98]
  charge: 0.0  # |e|

potential:
  grid points: [24 24 98]

species:
  V:
    name: Vanadium
    id: 7939ce69e6bb5930668dfcf9bb1979c3
    Z: 23.0
    valence: 13
    core: 10
    charge: 0.0
    file: /zhome/86/d/1666/PAW/gpaw-setups-0.9.20000/V.LDA.gz
    compensation charges: {type: gauss,
                           rc: 0.37,
                           lmax: 2}
    cutoffs: {filter: 2.14,
              core: 0.96}
    valence states:
      #              energy  rcut
      - 3s(2.00)   -69.819   1.254
      - 4s(2.00)    -4.846   1.254
      - 3p(6.00)   -43.961   1.281
      - 4p(0.00)    -1.526   1.281
      - 3d(3.00)    -5.381   1.169
      -  d          21.830   1.169
  
    # Using partial waves for V as LCAO basis

  Br:
    name: Bromine
    id: 10a25bbcb3273ec7d8d7f6fc01d2618d
    Z: 35.0
    valence: 7
    core: 28
    charge: 0.0
    file: /zhome/86/d/1666/PAW/gpaw-setups-0.9.20000/Br.LDA.gz
    compensation charges: {type: gauss,
                           rc: 0.35,
                           lmax: 2}
    cutoffs: {filter: 1.98,
              core: 2.38}
    valence states:
      #              energy  rcut
      - 4s(2.00)   -20.306   1.111
      - 4p(5.00)    -8.003   1.111
      -  s           6.906   1.111
      -  p          19.208   1.111
      -  d           0.000   1.111
  
    # Using partial waves for Br as LCAO basis

Reference energy: -167392.690611  # eV

eigensolver:
  name: 'Davidson'
  niter: 2
  converge_bands: 'occupied'
Density mixing:
  Method: sum
  Backend: pulay
  Linear mixing parameter: 0.05
  old densities: 5
  Damping of long wavelength oscillations: 100
occupation numbers:
  Fermi-Dirac:
    width: 0.1000  # eV
  

poisson solver:
  ecut: 4800.0  # eV

xc functional:
  name: None

convergence criteria:
- Maximum [total energy] change in last 3 cyles: 0.0005 eV / valence electron
- Maximum integral of absolute [dens]ity change: 0.0001 electrons / valence electron
- Maximum integral of absolute [eigenst]ate change: 4e-08 eV^2 / valence electron
maximum number of iterations: 333

#      iter     time        total  log10-change:
#                          energy   eigst   dens
# iter:   1 11:49:40   -14.669301                  +1.0,+0.0,+0.0
# iter:   2 11:50:03   -15.159091   -0.08  -1.42   +1.4,-0.0,-0.0
# iter:   3 11:50:25   -15.225145   -0.90  -1.46   +1.7,-0.0,-0.0
# iter:   4 11:50:47   -15.349783   -1.43  -1.55   +2.0,-0.0,-0.0
# iter:   5 11:51:10   -15.572184   -1.97  -1.67   +2.5,-0.0,-0.0
# iter:   6 11:51:32   -15.574471   -2.23  -2.04   +2.6,-0.0,-0.0
# iter:   7 11:51:54   -15.577795c  -2.68  -2.25   +2.7,-0.0,+0.0
# iter:   8 11:52:17   -15.574062c  -3.12  -2.53   +2.7,-0.0,+0.0
# iter:   9 11:52:39   -15.575921c  -3.71  -2.71   +2.7,-0.0,+0.0
# iter:  10 11:53:01   -15.576606c  -3.97  -2.96   +2.7,-0.0,+0.0
# iter:  11 11:53:24   -15.576631c  -4.43  -3.62   +2.7,-0.0,+0.0
# iter:  12 11:53:46   -15.576635c  -4.76  -3.63   +2.7,-0.0,+0.0
# iter:  13 11:54:08   -15.576698c  -4.92  -3.64   +2.7,-0.0,+0.0
# iter:  14 11:54:30   -15.576706c  -5.26  -4.04c  +2.7,-0.0,+0.0
# iter:  15 11:54:53   -15.576715c  -5.50  -4.24c  +2.7,-0.0,+0.0
# iter:  16 11:55:15   -15.576717c  -5.77  -4.36c  +2.7,-0.0,+0.0
# iter:  17 11:55:37   -15.576717c  -6.03  -4.39c  +2.7,-0.0,+0.0
# iter:  18 11:55:59   -15.576713c  -6.29  -4.51c  +2.7,-0.0,+0.0
# iter:  19 11:56:21   -15.576713c  -6.54  -4.75c  +2.7,-0.0,+0.0
# iter:  20 11:56:43   -15.576711c  -6.74  -4.81c  +2.7,-0.0,+0.0
# iter:  21 11:57:05   -15.576711c  -6.99  -5.16c  +2.7,-0.0,+0.0
# iter:  22 11:57:27   -15.576712c  -7.20  -5.18c  +2.7,-0.0,+0.0
# iter:  23 11:57:49   -15.576711c  -7.42c -5.20c  +2.7,-0.0,+0.0
scf_steps: 23
energies:  # eV
  coulomb:          -3.131789
  zero:              0.046839
  xc:              -15.759643
  external:          0.000000
  kinetic:           3.272579
  spinorbit:         0.000000
  entropy:          -0.009396
  total:           -15.581409
  extrapolated:    -15.576711

dipole moment: [-4.576013, -8.421900, -9.842911]  # |e|*Ang

total magnetic moment: [2.749481, -0.000936, 0.000000]

local magnetic moments: [
  [ 2.561925,  0.000000,  0.000000],  # V  0
  [ 0.004862,  0.013399,  0.000000],  # Br 1
  [-0.011809,  0.007983,  0.000000]]  # Br 2


Fermi level: -1.184 eV

kpt = [-0.417, -0.417, 0.000], weight = 0.007:
  Band      eig [eV]   occ [0-1]
     0       -65.925       1.000
   ...
    19        -5.531       1.000
    20        -5.411       1.000
    21        -5.322       1.000
    22        -5.189       1.000
    23        -5.127       1.000
    24        -2.124       1.000
    25        -1.819       0.998
    26        -1.657       0.991
    27        -0.567       0.002
    28        -0.430       0.001
    29         0.155       0.000
    30         0.402       0.000
    31         0.657       0.000
    32         0.944       0.000
    33         1.040       0.000
    34         2.565       0.000
   ...
    41         5.657       0.000

kpt = [-0.417, -0.333, 0.000], weight = 0.007:
  Band      eig [eV]   occ [0-1]
     0       -65.925       1.000
   ...
    19        -5.533       1.000
    20        -5.485       1.000
    21        -5.255       1.000
    22        -5.129       1.000
    23        -5.016       1.000
    24        -2.056       1.000
    25        -1.821       0.998
    26        -1.718       0.995
    27        -0.641       0.004
    28        -0.432       0.001
    29         0.268       0.000
    30         0.428       0.000
    31         0.542       0.000
    32         0.828       0.000
    33         0.998       0.000
    34         2.724       0.000
   ...
    41         5.653       0.000

kpt = [-0.417, -0.250, 0.000], weight = 0.007:
  Band      eig [eV]   occ [0-1]
     0       -65.925       1.000
   ...
    19        -5.639       1.000
    20        -5.496       1.000
    21        -5.224       1.000
    22        -5.081       1.000
    23        -4.923       1.000
    24        -1.907       0.999
    25        -1.852       0.999
    26        -1.781       0.997
    27        -0.693       0.007
    28        -0.493       0.001
    29         0.295       0.000
    30         0.376       0.000
    31         0.475       0.000
    32         0.733       0.000
    33         0.931       0.000
    34         3.145       0.000
   ...
    41         5.194       0.000
(only showing first 3 out of 144 k-points)

Gap: 0.807 eV
Transition (v -> c):
  (s=0, k=137, n=26, [0.50, -0.00, 0.00]) -> (s=0, k=62, n=27, [-0.00, -0.25, 0.00])
# Writing to gsq-08.gpw (mode='')

