#  __  _  _
# | _ |_)|_||  |
# |__||  | ||/\| - 24.1.0

User:   s194113@n-62-29-28
Date:   Sun Apr 21 19:47:15 2024
Arch:   x86_64
Pid:    14076
CWD:    /zhome/87/8/147075/10302/10302_NM/VBr2/V_con
Python: 3.8.5
gpaw:   /zhome/87/8/147075/venv-name/gpaw/gpaw (10808453a8)
_gpaw:  /zhome/87/8/147075/venv-name/gpaw/
        _gpaw.cpython-38-x86_64-linux-gnu.so (10808453a8)
ase:    /zhome/87/8/147075/venv-name/ase/ase (version 3.23.0b1-c36115a2db)
numpy:  /zhome/87/8/147075/venv-name/lib/python3.8/site-packages/numpy (version 1.24.4)
scipy:  /zhome/87/8/147075/venv-name/lib/python3.8/site-packages/scipy (version 1.10.1)
libxc:  4.3.4
units:  Angstrom and eV
cores: 12
OpenMP: False
OMP_NUM_THREADS: 1

---
input parameters:
  kpts: 
    density: 6.0
    gamma: True
  magmoms: [[1, 0, 0], [0, 0, 0], [0, 0, 0]]
  mixer: 
    backend: 'pulay'
    beta: 0.05
    method: 'sum'
    nmaxold: 5
    weight: 100
  mode: 
    name: 'pw'
    ecut: 600
    qspiral: array([0.14285714, 0.14285714, 0.        ])
  parallel: 
    kpt: None
    domain: 1
    band: 1
    order: 'kdb'
    stridebands: False
    augment_grids: False
    sl_auto: False
    sl_default: None
    sl_diagonalize: None
    sl_inverse_cholesky: None
    sl_lcao: None
    sl_lrtddft: None
    use_elpa: False
    elpasolver: '2stage'
    buffer_size: None
    gpu: False
  symmetry: 
    point_group: False
    time_reversal: False
  xc: 
    name: 'LDA'

#                        
#                        
#                        
#                        
#                        
#              Br        
#                        
#        V               
#          Br            
#                        
#                        
#                        
#                        
#                        

atoms: [  # symbols, positions [Ang] and initial magnetic moments
  [  V, [   0.000000,    0.000000,    7.513573], [ 1.000,  0.000,  0.000]], # 0
  [ Br, [   1.920000,    1.108513,    9.027147], [ 0.000,  0.000,  0.000]], # 1
  [ Br, [  -0.000000,    2.217025,    6.000000], [ 0.000,  0.000,  0.000]]] # 2

cell: [  # Ang
#     x            y            z
  [   3.840000,    0.000000,    0.000000],
  [  -1.920000,    3.325538,    0.000000],
  [   0.000000,   -0.000000,   15.027147]]

periodic: [True      , True      , False     ]
lengths:  [  3.840000,   3.840000,  15.027147]  # Ang
angles:   [ 90.000000,  90.000000, 120.000000]

symmetry:
  number of symmetries: 1
  rotations: [
    [[ 1,  0,  0], [ 0,  1,  0], [ 0,  0,  1]]]

bz sampling:
  number of bz points: 144
  number of ibz points: 144
  monkhorst-pack size: [12, 12, 1]
  monkhorst-pack shift: [0.041666666666666664, 0.041666666666666664, 0.0]
  points and weights: [
    [[ -0.41666667,  -0.41666667,   0.00000000], 0.00694444],  # 0
    [[ -0.41666667,  -0.33333333,   0.00000000], 0.00694444],  # 1
    [[ -0.41666667,  -0.25000000,   0.00000000], 0.00694444],  # 2
    [[ -0.41666667,  -0.16666667,   0.00000000], 0.00694444],  # 3
    [[ -0.41666667,  -0.08333333,   0.00000000], 0.00694444],  # 4
    [[ -0.41666667,  -0.00000000,   0.00000000], 0.00694444],  # 5
    [[ -0.41666667,   0.08333333,   0.00000000], 0.00694444],  # 6
    [[ -0.41666667,   0.16666667,   0.00000000], 0.00694444],  # 7
    [[ -0.41666667,   0.25000000,   0.00000000], 0.00694444],  # 8
    [[ -0.41666667,   0.33333333,   0.00000000], 0.00694444],  # 9
    # ...
    [[  0.50000000,   0.50000000,   0.00000000], 0.00694444]]  # 143

plane wave coefficients: 6439
cutoff: 600.0 eV

spin-components: 4  # (non-collinear spins)
bands: 42
valence electrons: 27.0
spin-degeneracy: 1
dtype: complex128

memory:
    wave functions: 1_238_243_328  # bytes  (103_186_944 per core)

parallelization:
    kpt:    12
    domain: 1
    band:   1

density:
  components: 4
  grid points: [24 24 90]
  charge: 0.0  # |e|

potential:
  grid points: [24 24 90]

species:
  V:
    name: Vanadium
    id: 7939ce69e6bb5930668dfcf9bb1979c3
    Z: 23.0
    valence: 13
    core: 10
    charge: 0.0
    file: /zhome/86/d/1666/PAW/gpaw-setups-0.9.20000/V.LDA.gz
    compensation charges: {type: gauss,
                           rc: 0.37,
                           lmax: 2}
    cutoffs: {filter: 2.14,
              core: 0.96}
    valence states:
      #              energy  rcut
      - 3s(2.00)   -69.819   1.254
      - 4s(2.00)    -4.846   1.254
      - 3p(6.00)   -43.961   1.281
      - 4p(0.00)    -1.526   1.281
      - 3d(3.00)    -5.381   1.169
      -  d          21.830   1.169
  
    # Using partial waves for V as LCAO basis

  Br:
    name: Bromine
    id: 10a25bbcb3273ec7d8d7f6fc01d2618d
    Z: 35.0
    valence: 7
    core: 28
    charge: 0.0
    file: /zhome/86/d/1666/PAW/gpaw-setups-0.9.20000/Br.LDA.gz
    compensation charges: {type: gauss,
                           rc: 0.35,
                           lmax: 2}
    cutoffs: {filter: 1.98,
              core: 2.38}
    valence states:
      #              energy  rcut
      - 4s(2.00)   -20.306   1.111
      - 4p(5.00)    -8.003   1.111
      -  s           6.906   1.111
      -  p          19.208   1.111
      -  d           0.000   1.111
  
    # Using partial waves for Br as LCAO basis

Reference energy: -167392.690611  # eV

eigensolver:
  name: 'Davidson'
  niter: 2
  converge_bands: 'occupied'
Density mixing:
  Method: sum
  Backend: pulay
  Linear mixing parameter: 0.05
  old densities: 5
  Damping of long wavelength oscillations: 100
occupation numbers:
  Fermi-Dirac:
    width: 0.1000  # eV
  

poisson solver:
  ecut: 4800.0  # eV

xc functional:
  name: None

convergence criteria:
- Maximum [total energy] change in last 3 cyles: 0.0005 eV / valence electron
- Maximum integral of absolute [dens]ity change: 0.0001 electrons / valence electron
- Maximum integral of absolute [eigenst]ate change: 4e-08 eV^2 / valence electron
maximum number of iterations: 333

#      iter     time        total  log10-change:
#                          energy   eigst   dens
# iter:   1 19:47:48   -14.871842                  +1.0,+0.0,+0.0
# iter:   2 19:48:08   -15.152211   -0.37  -1.42   +1.5,-0.0,+0.0
# iter:   3 19:48:28   -15.197848   -1.10  -1.46   +1.8,-0.0,+0.0
# iter:   4 19:48:48   -15.326539   -1.54  -1.56   +2.1,-0.0,-0.0
# iter:   5 19:49:08   -15.555768   -2.05  -1.68   +2.7,-0.0,-0.0
# iter:   6 19:49:28   -15.562912   -2.30  -2.08   +2.8,-0.0,-0.0
# iter:   7 19:49:48   -15.560399c  -2.81  -2.26   +2.8,-0.0,-0.0
# iter:   8 19:50:09   -15.559081c  -3.48  -2.63   +2.8,-0.0,-0.0
# iter:   9 19:50:29   -15.562844c  -3.26  -2.74   +2.9,-0.0,-0.0
# iter:  10 19:50:49   -15.561481c  -3.82  -2.62   +2.9,-0.0,-0.0
# iter:  11 19:51:09   -15.561484c  -4.53  -3.58   +2.9,-0.0,-0.0
# iter:  12 19:51:29   -15.561517c  -4.90  -3.62   +2.9,-0.0,-0.0
# iter:  13 19:51:49   -15.561543c  -5.08  -3.69   +2.9,-0.0,-0.0
# iter:  14 19:52:09   -15.561541c  -5.39  -3.76   +2.9,-0.0,-0.0
# iter:  15 19:52:29   -15.561533c  -5.65  -3.80   +2.9,-0.0,-0.0
# iter:  16 19:52:49   -15.561528c  -5.95  -3.83   +2.9,-0.0,-0.0
# iter:  17 19:53:09   -15.561533c  -6.24  -3.91   +2.9,-0.0,-0.0
# iter:  18 19:53:29   -15.561531c  -6.37  -3.94   +2.9,-0.0,-0.0
# iter:  19 19:53:49   -15.561531c  -6.64  -4.05c  +2.9,-0.0,-0.0
# iter:  20 19:54:09   -15.561529c  -6.98  -4.11c  +2.9,-0.0,-0.0
# iter:  21 19:54:29   -15.561529c  -7.15  -4.14c  +2.9,-0.0,-0.0
# iter:  22 19:54:48   -15.561539c  -6.85  -4.19c  +2.9,-0.0,-0.0
# iter:  23 19:55:08   -15.561541c  -7.25  -4.77c  +2.9,-0.0,-0.0
# iter:  24 19:55:28   -15.561541c  -7.75c -5.36c  +2.9,-0.0,-0.0
scf_steps: 24
energies:  # eV
  coulomb:          -3.451182
  zero:              0.045839
  xc:              -15.871701
  external:          0.000000
  kinetic:           3.720273
  spinorbit:         0.000000
  entropy:          -0.009539
  total:           -15.566311
  extrapolated:    -15.561541

dipole moment: [-4.932304, -8.542785, -9.463194]  # |e|*Ang

total magnetic moment: [2.874244, -0.001683, -0.000000]

local magnetic moments: [
  [ 2.596949,  0.000000, -0.000000],  # V  0
  [-0.015494,  0.019331, -0.000000],  # Br 1
  [-0.015399,  0.019407, -0.000000]]  # Br 2


Fermi level: -0.690 eV

kpt = [-0.417, -0.417, 0.000], weight = 0.007:
  Band      eig [eV]   occ [0-1]
     0       -65.454       1.000
   ...
    19        -5.080       1.000
    20        -4.979       1.000
    21        -4.902       1.000
    22        -4.894       1.000
    23        -4.832       1.000
    24        -1.736       1.000
    25        -1.238       0.996
    26        -1.218       0.995
    27        -0.018       0.001
    28         0.006       0.001
    29         0.478       0.000
    30         1.088       0.000
    31         1.101       0.000
    32         1.471       0.000
    33         1.564       0.000
    34         2.910       0.000
   ...
    41         6.121       0.000

kpt = [-0.417, -0.333, 0.000], weight = 0.007:
  Band      eig [eV]   occ [0-1]
     0       -65.454       1.000
   ...
    19        -5.120       1.000
    20        -5.038       1.000
    21        -5.010       1.000
    22        -4.889       1.000
    23        -4.825       1.000
    24        -1.603       1.000
    25        -1.318       0.998
    26        -1.218       0.995
    27        -0.087       0.002
    28        -0.003       0.001
    29         0.691       0.000
    30         0.951       0.000
    31         1.092       0.000
    32         1.432       0.000
    33         1.508       0.000
    34         3.140       0.000
   ...
    41         6.107       0.000

kpt = [-0.417, -0.250, 0.000], weight = 0.007:
  Band      eig [eV]   occ [0-1]
     0       -65.454       1.000
   ...
    19        -5.184       1.000
    20        -5.127       1.000
    21        -5.099       1.000
    22        -4.816       1.000
    23        -4.750       1.000
    24        -1.528       1.000
    25        -1.367       0.999
    26        -1.212       0.995
    27        -0.142       0.004
    28        -0.002       0.001
    29         0.697       0.000
    30         0.894       0.000
    31         1.087       0.000
    32         1.382       0.000
    33         1.517       0.000
    34         3.409       0.000
   ...
    41         5.747       0.000
(only showing first 3 out of 144 k-points)

Gap: 0.884 eV
Transition (v -> c):
  (s=0, k=137, n=26, [0.50, -0.00, 0.00]) -> (s=0, k=100, n=27, [0.25, -0.08, 0.00])
# Writing to gsq-24.gpw (mode='')

---

timing:  # [seconds]
  Total: 493.672  # ━━━━━━━━━━━━━━━━━━━━━━━━━━━━━━━━━━━━━━━━━━━━━━━━━━━━━━━━━
  Init:   14.547  # ━╸
  SCF:   478.562  # ━━━━━━━━━━━━━━━━━━━━━━━━━━━━━━━━━━━━━━━━━━━━━━━━━━━━━━━╸

Max RSS: 887.906  # MiB
