#  __  _  _
# | _ |_)|_||  |
# |__||  | ||/\| - 24.1.0

User:   s194113@n-62-29-28
Date:   Sun Apr 21 20:26:11 2024
Arch:   x86_64
Pid:    14076
CWD:    /zhome/87/8/147075/10302/10302_NM/VBr2/V_con
Python: 3.8.5
gpaw:   /zhome/87/8/147075/venv-name/gpaw/gpaw (10808453a8)
_gpaw:  /zhome/87/8/147075/venv-name/gpaw/
        _gpaw.cpython-38-x86_64-linux-gnu.so (10808453a8)
ase:    /zhome/87/8/147075/venv-name/ase/ase (version 3.23.0b1-c36115a2db)
numpy:  /zhome/87/8/147075/venv-name/lib/python3.8/site-packages/numpy (version 1.24.4)
scipy:  /zhome/87/8/147075/venv-name/lib/python3.8/site-packages/scipy (version 1.10.1)
libxc:  4.3.4
units:  Angstrom and eV
cores: 12
OpenMP: False
OMP_NUM_THREADS: 1

---
input parameters:
  kpts: 
    density: 6.0
    gamma: True
  magmoms: [[1, 0, 0], [0, 0, 0], [0, 0, 0]]
  mixer: 
    backend: 'pulay'
    beta: 0.05
    method: 'sum'
    nmaxold: 5
    weight: 100
  mode: 
    name: 'pw'
    ecut: 600
    qspiral: array([0.02380952, 0.02380952, 0.        ])
  parallel: 
    kpt: None
    domain: 1
    band: 1
    order: 'kdb'
    stridebands: False
    augment_grids: False
    sl_auto: False
    sl_default: None
    sl_diagonalize: None
    sl_inverse_cholesky: None
    sl_lcao: None
    sl_lrtddft: None
    use_elpa: False
    elpasolver: '2stage'
    buffer_size: None
    gpu: False
  symmetry: 
    point_group: False
    time_reversal: False
  xc: 
    name: 'LDA'

#                        
#                        
#                        
#                        
#                        
#              Br        
#                        
#        V               
#          Br            
#                        
#                        
#                        
#                        
#                        

atoms: [  # symbols, positions [Ang] and initial magnetic moments
  [  V, [   0.000000,    0.000000,    7.513573], [ 1.000,  0.000,  0.000]], # 0
  [ Br, [   1.920000,    1.108513,    9.027147], [ 0.000,  0.000,  0.000]], # 1
  [ Br, [  -0.000000,    2.217025,    6.000000], [ 0.000,  0.000,  0.000]]] # 2

cell: [  # Ang
#     x            y            z
  [   3.840000,    0.000000,    0.000000],
  [  -1.920000,    3.325538,    0.000000],
  [   0.000000,   -0.000000,   15.027147]]

periodic: [True      , True      , False     ]
lengths:  [  3.840000,   3.840000,  15.027147]  # Ang
angles:   [ 90.000000,  90.000000, 120.000000]

symmetry:
  number of symmetries: 1
  rotations: [
    [[ 1,  0,  0], [ 0,  1,  0], [ 0,  0,  1]]]

bz sampling:
  number of bz points: 144
  number of ibz points: 144
  monkhorst-pack size: [12, 12, 1]
  monkhorst-pack shift: [0.041666666666666664, 0.041666666666666664, 0.0]
  points and weights: [
    [[ -0.41666667,  -0.41666667,   0.00000000], 0.00694444],  # 0
    [[ -0.41666667,  -0.33333333,   0.00000000], 0.00694444],  # 1
    [[ -0.41666667,  -0.25000000,   0.00000000], 0.00694444],  # 2
    [[ -0.41666667,  -0.16666667,   0.00000000], 0.00694444],  # 3
    [[ -0.41666667,  -0.08333333,   0.00000000], 0.00694444],  # 4
    [[ -0.41666667,  -0.00000000,   0.00000000], 0.00694444],  # 5
    [[ -0.41666667,   0.08333333,   0.00000000], 0.00694444],  # 6
    [[ -0.41666667,   0.16666667,   0.00000000], 0.00694444],  # 7
    [[ -0.41666667,   0.25000000,   0.00000000], 0.00694444],  # 8
    [[ -0.41666667,   0.33333333,   0.00000000], 0.00694444],  # 9
    # ...
    [[  0.50000000,   0.50000000,   0.00000000], 0.00694444]]  # 143

plane wave coefficients: 6439
cutoff: 600.0 eV

spin-components: 4  # (non-collinear spins)
bands: 42
valence electrons: 27.0
spin-degeneracy: 1
dtype: complex128

memory:
    wave functions: 1_238_243_328  # bytes  (103_186_944 per core)

parallelization:
    kpt:    12
    domain: 1
    band:   1

density:
  components: 4
  grid points: [24 24 90]
  charge: 0.0  # |e|

potential:
  grid points: [24 24 90]

species:
  V:
    name: Vanadium
    id: 7939ce69e6bb5930668dfcf9bb1979c3
    Z: 23.0
    valence: 13
    core: 10
    charge: 0.0
    file: /zhome/86/d/1666/PAW/gpaw-setups-0.9.20000/V.LDA.gz
    compensation charges: {type: gauss,
                           rc: 0.37,
                           lmax: 2}
    cutoffs: {filter: 2.14,
              core: 0.96}
    valence states:
      #              energy  rcut
      - 3s(2.00)   -69.819   1.254
      - 4s(2.00)    -4.846   1.254
      - 3p(6.00)   -43.961   1.281
      - 4p(0.00)    -1.526   1.281
      - 3d(3.00)    -5.381   1.169
      -  d          21.830   1.169
  
    # Using partial waves for V as LCAO basis

  Br:
    name: Bromine
    id: 10a25bbcb3273ec7d8d7f6fc01d2618d
    Z: 35.0
    valence: 7
    core: 28
    charge: 0.0
    file: /zhome/86/d/1666/PAW/gpaw-setups-0.9.20000/Br.LDA.gz
    compensation charges: {type: gauss,
                           rc: 0.35,
                           lmax: 2}
    cutoffs: {filter: 1.98,
              core: 2.38}
    valence states:
      #              energy  rcut
      - 4s(2.00)   -20.306   1.111
      - 4p(5.00)    -8.003   1.111
      -  s           6.906   1.111
      -  p          19.208   1.111
      -  d           0.000   1.111
  
    # Using partial waves for Br as LCAO basis

Reference energy: -167392.690611  # eV

eigensolver:
  name: 'Davidson'
  niter: 2
  converge_bands: 'occupied'
Density mixing:
  Method: sum
  Backend: pulay
  Linear mixing parameter: 0.05
  old densities: 5
  Damping of long wavelength oscillations: 100
occupation numbers:
  Fermi-Dirac:
    width: 0.1000  # eV
  

poisson solver:
  ecut: 4800.0  # eV

xc functional:
  name: None

convergence criteria:
- Maximum [total energy] change in last 3 cyles: 0.0005 eV / valence electron
- Maximum integral of absolute [dens]ity change: 0.0001 electrons / valence electron
- Maximum integral of absolute [eigenst]ate change: 4e-08 eV^2 / valence electron
maximum number of iterations: 333

#      iter     time        total  log10-change:
#                          energy   eigst   dens
# iter:   1 20:26:44   -14.970797                  +1.0,+0.0,+0.0
# iter:   2 20:27:04   -15.112358   -0.65  -1.42   +1.5,+0.0,+0.0
# iter:   3 20:27:25   -15.144360   -1.20  -1.46   +1.9,-0.0,+0.0
# iter:   4 20:27:44   -15.279921   -1.56  -1.56   +2.2,-0.0,+0.0
# iter:   5 20:28:04   -15.528746   -2.03  -1.68   +2.8,-0.0,+0.0
# iter:   6 20:28:24   -15.546409   -2.15  -2.09   +2.9,-0.0,+0.0
# iter:   7 20:28:45   -15.535365   -2.62  -2.30   +2.9,-0.0,+0.0
# iter:   8 20:29:05   -15.534813c  -3.50  -2.65   +2.9,-0.0,+0.0
# iter:   9 20:29:25   -15.538985c  -3.15  -2.75   +3.0,-0.0,+0.0
# iter:  10 20:29:45   -15.537510c  -3.77  -2.65   +3.0,-0.0,+0.0
# iter:  11 20:30:05   -15.537497c  -4.35  -3.54   +3.0,-0.0,+0.0
# iter:  12 20:30:25   -15.537526c  -4.78  -3.62   +3.0,-0.0,+0.0
# iter:  13 20:30:45   -15.537532c  -4.98  -3.72   +3.0,-0.0,-0.0
# iter:  14 20:31:05   -15.537524c  -5.32  -3.89   +3.0,-0.0,-0.0
# iter:  15 20:31:25   -15.537515c  -5.59  -3.98   +3.0,-0.0,-0.0
# iter:  16 20:31:45   -15.537522c  -5.84  -4.07c  +3.0,-0.0,-0.0
# iter:  17 20:32:05   -15.537527c  -6.13  -4.12c  +3.0,-0.0,-0.0
# iter:  18 20:32:25   -15.537538c  -6.35  -4.20c  +3.0,-0.0,-0.0
# iter:  19 20:32:45   -15.537539c  -6.45  -4.33c  +3.0,-0.0,-0.0
# iter:  20 20:33:05   -15.537539c  -6.91  -4.56c  +3.0,-0.0,-0.0
# iter:  21 20:33:25   -15.537539c  -7.22  -4.60c  +3.0,-0.0,-0.0
# iter:  22 20:33:45   -15.537539c  -7.53c -4.72c  +3.0,-0.0,-0.0
scf_steps: 22
energies:  # eV
  coulomb:          -3.925608
  zero:              0.044738
  xc:              -16.025719
  external:          0.000000
  kinetic:           4.375113
  spinorbit:         0.000000
  entropy:          -0.012126
  total:           -15.543602
  extrapolated:    -15.537539

dipole moment: [-5.128817, -8.882313, -10.188797]  # |e|*Ang

total magnetic moment: [2.995031, -0.000369, -0.000000]

local magnetic moments: [
  [ 2.642408, -0.000000,  0.000000],  # V  0
  [-0.029161,  0.004383, -0.000000],  # Br 1
  [-0.029158,  0.004407, -0.000000]]  # Br 2


Fermi level: -0.652 eV

kpt = [-0.417, -0.417, 0.000], weight = 0.007:
  Band      eig [eV]   occ [0-1]
     0       -65.405       1.000
   ...
    19        -5.091       1.000
    20        -5.046       1.000
    21        -5.035       1.000
    22        -4.930       1.000
    23        -4.817       1.000
    24        -1.686       1.000
    25        -1.164       0.994
    26        -1.158       0.994
    27        -0.078       0.003
    28         0.163       0.000
    29         0.350       0.000
    30         1.130       0.000
    31         1.218       0.000
    32         1.494       0.000
    33         1.700       0.000
    34         3.197       0.000
   ...
    41         5.772       0.000

kpt = [-0.417, -0.333, 0.000], weight = 0.007:
  Band      eig [eV]   occ [0-1]
     0       -65.405       1.000
   ...
    19        -5.249       1.000
    20        -5.139       1.000
    21        -4.981       1.000
    22        -4.953       1.000
    23        -4.785       1.000
    24        -1.511       1.000
    25        -1.224       0.997
    26        -1.157       0.994
    27        -0.121       0.005
    28         0.095       0.001
    29         0.682       0.000
    30         1.024       0.000
    31         1.149       0.000
    32         1.430       0.000
    33         1.605       0.000
    34         3.605       0.000
   ...
    41         6.105       0.000

kpt = [-0.417, -0.250, 0.000], weight = 0.007:
  Band      eig [eV]   occ [0-1]
     0       -65.405       1.000
   ...
    19        -5.256       1.000
    20        -5.141       1.000
    21        -4.987       1.000
    22        -4.949       1.000
    23        -4.782       1.000
    24        -1.509       1.000
    25        -1.225       0.997
    26        -1.157       0.994
    27        -0.125       0.005
    28         0.096       0.001
    29         0.682       0.000
    30         1.022       0.000
    31         1.149       0.000
    32         1.428       0.000
    33         1.606       0.000
    34         3.620       0.000
   ...
    41         6.247       0.000
(only showing first 3 out of 144 k-points)

Gap: 0.806 eV
Transition (v -> c):
  (s=0, k=5, n=26, [-0.42, -0.00, 0.00]) -> (s=0, k=87, n=27, [0.17, -0.17, 0.00])
# Writing to gsq-29.gpw (mode='')

---

timing:  # [seconds]
  Total: 454.024  # ━━━━━━━━━━━━━━━━━━━━━━━━━━━━━━━━━━━━━━━━━━━━━━━━━━━━━━━━━
  Init:   14.352  # ━━
  SCF:   439.093  # ━━━━━━━━━━━━━━━━━━━━━━━━━━━━━━━━━━━━━━━━━━━━━━━━━━━━━━━

Max RSS: 887.906  # MiB
