#  __  _  _
# | _ |_)|_||  |
# |__||  | ||/\| - 24.1.0

User:   s194113@n-62-29-20
Date:   Tue Apr 23 13:42:35 2024
Arch:   x86_64
Pid:    1040
CWD:    /zhome/87/8/147075/10302/10302_NM/VBr2/V_con
Python: 3.8.5
gpaw:   /zhome/87/8/147075/venv-name/gpaw/gpaw (10808453a8)
_gpaw:  /zhome/87/8/147075/venv-name/gpaw/
        _gpaw.cpython-38-x86_64-linux-gnu.so (10808453a8)
ase:    /zhome/87/8/147075/venv-name/ase/ase (version 3.23.0b1-c36115a2db)
numpy:  /zhome/87/8/147075/venv-name/lib/python3.8/site-packages/numpy (version 1.24.4)
scipy:  /zhome/87/8/147075/venv-name/lib/python3.8/site-packages/scipy (version 1.10.1)
libxc:  4.3.4
units:  Angstrom and eV
cores: 12
OpenMP: False
OMP_NUM_THREADS: 1

---
input parameters:
  kpts: 
    density: 6.0
    gamma: True
  magmoms: [[1, 0, 0], [0, 0, 0], [0, 0, 0]]
  mixer: 
    backend: 'pulay'
    beta: 0.05
    method: 'sum'
    nmaxold: 5
    weight: 100
  mode: 
    name: 'pw'
    ecut: 600
    qspiral: array([0.23809524, 0.23809524, 0.        ])
  parallel: 
    kpt: None
    domain: 1
    band: 1
    order: 'kdb'
    stridebands: False
    augment_grids: False
    sl_auto: False
    sl_default: None
    sl_diagonalize: None
    sl_inverse_cholesky: None
    sl_lcao: None
    sl_lrtddft: None
    use_elpa: False
    elpasolver: '2stage'
    buffer_size: None
    gpu: False
  symmetry: 
    point_group: False
    time_reversal: False
  xc: 
    name: 'LDA'

#                        
#                        
#                        
#                        
#                        
#              Br        
#                        
#        V               
#          Br            
#                        
#                        
#                        
#                        
#                        

atoms: [  # symbols, positions [Ang] and initial magnetic moments
  [  V, [   0.000000,    0.000000,    8.513573], [ 1.000,  0.000,  0.000]], # 0
  [ Br, [   1.920000,    1.108513,   10.027147], [ 0.000,  0.000,  0.000]], # 1
  [ Br, [  -0.000000,    2.217025,    7.000000], [ 0.000,  0.000,  0.000]]] # 2

cell: [  # Ang
#     x            y            z
  [   3.840000,    0.000000,    0.000000],
  [  -1.920000,    3.325538,    0.000000],
  [   0.000000,   -0.000000,   17.027147]]

periodic: [True      , True      , False     ]
lengths:  [  3.840000,   3.840000,  17.027147]  # Ang
angles:   [ 90.000000,  90.000000, 120.000000]

symmetry:
  number of symmetries: 1
  rotations: [
    [[ 1,  0,  0], [ 0,  1,  0], [ 0,  0,  1]]]

bz sampling:
  number of bz points: 144
  number of ibz points: 144
  monkhorst-pack size: [12, 12, 1]
  monkhorst-pack shift: [0.041666666666666664, 0.041666666666666664, 0.0]
  points and weights: [
    [[ -0.41666667,  -0.41666667,   0.00000000], 0.00694444],  # 0
    [[ -0.41666667,  -0.33333333,   0.00000000], 0.00694444],  # 1
    [[ -0.41666667,  -0.25000000,   0.00000000], 0.00694444],  # 2
    [[ -0.41666667,  -0.16666667,   0.00000000], 0.00694444],  # 3
    [[ -0.41666667,  -0.08333333,   0.00000000], 0.00694444],  # 4
    [[ -0.41666667,  -0.00000000,   0.00000000], 0.00694444],  # 5
    [[ -0.41666667,   0.08333333,   0.00000000], 0.00694444],  # 6
    [[ -0.41666667,   0.16666667,   0.00000000], 0.00694444],  # 7
    [[ -0.41666667,   0.25000000,   0.00000000], 0.00694444],  # 8
    [[ -0.41666667,   0.33333333,   0.00000000], 0.00694444],  # 9
    # ...
    [[  0.50000000,   0.50000000,   0.00000000], 0.00694444]]  # 143

plane wave coefficients: 7311
cutoff: 600.0 eV

spin-components: 4  # (non-collinear spins)
bands: 42
valence electrons: 27.0
spin-degeneracy: 1
dtype: complex128

memory:
    wave functions: 1_402_748_928  # bytes  (116_895_744 per core)

parallelization:
    kpt:    12
    domain: 1
    band:   1

density:
  components: 4
  grid points: [24 24 98]
  charge: 0.0  # |e|

potential:
  grid points: [24 24 98]

species:
  V:
    name: Vanadium
    id: 7939ce69e6bb5930668dfcf9bb1979c3
    Z: 23.0
    valence: 13
    core: 10
    charge: 0.0
    file: /zhome/86/d/1666/PAW/gpaw-setups-0.9.20000/V.LDA.gz
    compensation charges: {type: gauss,
                           rc: 0.37,
                           lmax: 2}
    cutoffs: {filter: 2.14,
              core: 0.96}
    valence states:
      #              energy  rcut
      - 3s(2.00)   -69.819   1.254
      - 4s(2.00)    -4.846   1.254
      - 3p(6.00)   -43.961   1.281
      - 4p(0.00)    -1.526   1.281
      - 3d(3.00)    -5.381   1.169
      -  d          21.830   1.169
  
    # Using partial waves for V as LCAO basis

  Br:
    name: Bromine
    id: 10a25bbcb3273ec7d8d7f6fc01d2618d
    Z: 35.0
    valence: 7
    core: 28
    charge: 0.0
    file: /zhome/86/d/1666/PAW/gpaw-setups-0.9.20000/Br.LDA.gz
    compensation charges: {type: gauss,
                           rc: 0.35,
                           lmax: 2}
    cutoffs: {filter: 1.98,
              core: 2.38}
    valence states:
      #              energy  rcut
      - 4s(2.00)   -20.306   1.111
      - 4p(5.00)    -8.003   1.111
      -  s           6.906   1.111
      -  p          19.208   1.111
      -  d           0.000   1.111
  
    # Using partial waves for Br as LCAO basis

Reference energy: -167392.690611  # eV

eigensolver:
  name: 'Davidson'
  niter: 2
  converge_bands: 'occupied'
Density mixing:
  Method: sum
  Backend: pulay
  Linear mixing parameter: 0.05
  old densities: 5
  Damping of long wavelength oscillations: 100
occupation numbers:
  Fermi-Dirac:
    width: 0.1000  # eV
  

poisson solver:
  ecut: 4800.0  # eV

xc functional:
  name: None

convergence criteria:
- Maximum [total energy] change in last 3 cyles: 0.0005 eV / valence electron
- Maximum integral of absolute [dens]ity change: 0.0001 electrons / valence electron
- Maximum integral of absolute [eigenst]ate change: 4e-08 eV^2 / valence electron
maximum number of iterations: 333

#      iter     time        total  log10-change:
#                          energy   eigst   dens
# iter:   1 13:43:11   -14.641660                  +1.0,+0.0,+0.0
# iter:   2 13:43:34   -15.163845   -0.04  -1.42   +1.4,-0.0,+0.0
# iter:   3 13:43:57   -15.234427   -0.87  -1.46   +1.7,-0.0,-0.0
# iter:   4 13:44:20   -15.358390   -1.41  -1.56   +2.0,-0.0,-0.0
# iter:   5 13:44:42   -15.577410   -1.95  -1.67   +2.5,-0.0,-0.0
# iter:   6 13:45:05   -15.579210   -2.19  -2.05   +2.6,-0.0,-0.0
# iter:   7 13:45:28   -15.581098c  -2.75  -2.26   +2.7,-0.0,-0.0
# iter:   8 13:45:50   -15.578462c  -3.18  -2.59   +2.6,-0.0,-0.0
# iter:   9 13:46:13   -15.581055c  -3.60  -2.72   +2.7,-0.0,-0.0
# iter:  10 13:46:35   -15.580884c  -3.89  -2.90   +2.7,-0.0,-0.0
# iter:  11 13:46:58   -15.580910c  -4.40  -3.63   +2.7,-0.0,-0.0
# iter:  12 13:47:21   -15.580931c  -4.74  -3.64   +2.7,-0.0,+0.0
# iter:  13 13:47:43   -15.580999c  -4.86  -3.67   +2.7,-0.0,-0.0
# iter:  14 13:48:06   -15.580992c  -5.19  -3.79   +2.7,-0.0,-0.0
# iter:  15 13:48:28   -15.580989c  -5.36  -4.10c  +2.7,-0.0,-0.0
# iter:  16 13:48:50   -15.580992c  -5.65  -4.05c  +2.7,-0.0,-0.0
# iter:  17 13:49:13   -15.580991c  -6.01  -4.44c  +2.7,-0.0,-0.0
# iter:  18 13:49:35   -15.580988c  -6.25  -4.58c  +2.7,-0.0,-0.0
# iter:  19 13:49:57   -15.580989c  -6.47  -4.59c  +2.7,-0.0,-0.0
# iter:  20 13:50:20   -15.580987c  -6.63  -4.63c  +2.7,-0.0,-0.0
# iter:  21 13:50:42   -15.580988c  -6.90  -4.52c  +2.7,-0.0,-0.0
# iter:  22 13:51:04   -15.580988c  -7.14  -5.24c  +2.7,-0.0,-0.0
# iter:  23 13:51:27   -15.580988c  -7.38  -5.41c  +2.7,-0.0,-0.0
# iter:  24 13:51:49   -15.580988c  -7.60c -5.41c  +2.7,-0.0,-0.0
scf_steps: 24
energies:  # eV
  coulomb:          -3.059929
  zero:              0.047237
  xc:              -15.738422
  external:          0.000000
  kinetic:           3.174465
  spinorbit:         0.000000
  entropy:          -0.008679
  total:           -15.585327
  extrapolated:    -15.580988

dipole moment: [-4.744707, -8.217998, -9.706056]  # |e|*Ang

total magnetic moment: [2.733206, -0.001154, -0.000000]

local magnetic moments: [
  [ 2.556468, -0.000000,  0.000000],  # V  0
  [-0.001074,  0.013283, -0.000000],  # Br 1
  [-0.000917,  0.013295, -0.000000]]  # Br 2


Fermi level: -1.174 eV

kpt = [-0.417, -0.417, 0.000], weight = 0.007:
  Band      eig [eV]   occ [0-1]
     0       -65.929       1.000
   ...
    19        -5.494       1.000
    20        -5.472       1.000
    21        -5.418       1.000
    22        -5.309       1.000
    23        -5.292       1.000
    24        -2.098       1.000
    25        -1.752       0.997
    26        -1.704       0.995
    27        -0.543       0.002
    28        -0.445       0.001
    29         0.197       0.000
    30         0.531       0.000
    31         0.560       0.000
    32         0.999       0.000
    33         1.000       0.000
    34         2.570       0.000
   ...
    41         5.781       0.000

kpt = [-0.417, -0.333, 0.000], weight = 0.007:
  Band      eig [eV]   occ [0-1]
     0       -65.929       1.000
   ...
    19        -5.548       1.000
    20        -5.419       1.000
    21        -5.315       1.000
    22        -5.243       1.000
    23        -5.173       1.000
    24        -2.116       1.000
    25        -1.830       0.999
    26        -1.709       0.995
    27        -0.608       0.003
    28        -0.406       0.000
    29         0.253       0.000
    30         0.449       0.000
    31         0.564       0.000
    32         0.950       0.000
    33         1.044       0.000
    34         2.479       0.000
   ...
    41         5.327       0.000

kpt = [-0.417, -0.250, 0.000], weight = 0.007:
  Band      eig [eV]   occ [0-1]
     0       -65.929       1.000
   ...
    19        -5.544       1.000
    20        -5.379       1.000
    21        -5.308       1.000
    22        -5.177       1.000
    23        -5.037       1.000
    24        -2.017       1.000
    25        -1.956       1.000
    26        -1.689       0.994
    27        -0.587       0.003
    28        -0.488       0.001
    29         0.249       0.000
    30         0.333       0.000
    31         0.583       0.000
    32         0.905       0.000
    33         0.969       0.000
    34         2.696       0.000
   ...
    41         4.966       0.000
(only showing first 3 out of 144 k-points)

Gap: 0.856 eV
Transition (v -> c):
  (s=0, k=137, n=26, [0.50, -0.00, 0.00]) -> (s=0, k=54, n=27, [-0.08, 0.08, 0.00])
# Writing to gsq-20.gpw (mode='')

---

timing:  # [seconds]
  Total: 1134.673  # ━━━━━━━━━━━━━━━━━━━━━━━━━━━━━━━━━━━━━━━━━━━━━━━━━━━━━━━━
  Init:    15.062  # ╸
  SCF:    538.562  # ━━━━━━━━━━━━━━━━━━━━━━━━━━╸

Max RSS: 942.672  # MiB
