#  __  _  _
# | _ |_)|_||  |
# |__||  | ||/\| - 24.1.0

User:   s194113@n-62-29-20
Date:   Tue Apr 23 11:40:17 2024
Arch:   x86_64
Pid:    1040
CWD:    /zhome/87/8/147075/10302/10302_NM/VBr2/V_con
Python: 3.8.5
gpaw:   /zhome/87/8/147075/venv-name/gpaw/gpaw (10808453a8)
_gpaw:  /zhome/87/8/147075/venv-name/gpaw/
        _gpaw.cpython-38-x86_64-linux-gnu.so (10808453a8)
ase:    /zhome/87/8/147075/venv-name/ase/ase (version 3.23.0b1-c36115a2db)
numpy:  /zhome/87/8/147075/venv-name/lib/python3.8/site-packages/numpy (version 1.24.4)
scipy:  /zhome/87/8/147075/venv-name/lib/python3.8/site-packages/scipy (version 1.10.1)
libxc:  4.3.4
units:  Angstrom and eV
cores: 12
OpenMP: False
OMP_NUM_THREADS: 1

---
input parameters:
  kpts: 
    density: 6.0
    gamma: True
  magmoms: [[1, 0, 0], [0, 0, 0], [0, 0, 0]]
  mixer: 
    backend: 'pulay'
    beta: 0.05
    method: 'sum'
    nmaxold: 5
    weight: 100
  mode: 
    name: 'pw'
    ecut: 600
    qspiral: array([0.35, 0.  , 0.  ])
  parallel: 
    kpt: None
    domain: 1
    band: 1
    order: 'kdb'
    stridebands: False
    augment_grids: False
    sl_auto: False
    sl_default: None
    sl_diagonalize: None
    sl_inverse_cholesky: None
    sl_lcao: None
    sl_lrtddft: None
    use_elpa: False
    elpasolver: '2stage'
    buffer_size: None
    gpu: False
  symmetry: 
    point_group: False
    time_reversal: False
  xc: 
    name: 'LDA'

#                        
#                        
#                        
#                        
#                        
#              Br        
#                        
#        V               
#          Br            
#                        
#                        
#                        
#                        
#                        

atoms: [  # symbols, positions [Ang] and initial magnetic moments
  [  V, [   0.000000,    0.000000,    8.513573], [ 1.000,  0.000,  0.000]], # 0
  [ Br, [   1.920000,    1.108513,   10.027147], [ 0.000,  0.000,  0.000]], # 1
  [ Br, [  -0.000000,    2.217025,    7.000000], [ 0.000,  0.000,  0.000]]] # 2

cell: [  # Ang
#     x            y            z
  [   3.840000,    0.000000,    0.000000],
  [  -1.920000,    3.325538,    0.000000],
  [   0.000000,   -0.000000,   17.027147]]

periodic: [True      , True      , False     ]
lengths:  [  3.840000,   3.840000,  17.027147]  # Ang
angles:   [ 90.000000,  90.000000, 120.000000]

symmetry:
  number of symmetries: 1
  rotations: [
    [[ 1,  0,  0], [ 0,  1,  0], [ 0,  0,  1]]]

bz sampling:
  number of bz points: 144
  number of ibz points: 144
  monkhorst-pack size: [12, 12, 1]
  monkhorst-pack shift: [0.041666666666666664, 0.041666666666666664, 0.0]
  points and weights: [
    [[ -0.41666667,  -0.41666667,   0.00000000], 0.00694444],  # 0
    [[ -0.41666667,  -0.33333333,   0.00000000], 0.00694444],  # 1
    [[ -0.41666667,  -0.25000000,   0.00000000], 0.00694444],  # 2
    [[ -0.41666667,  -0.16666667,   0.00000000], 0.00694444],  # 3
    [[ -0.41666667,  -0.08333333,   0.00000000], 0.00694444],  # 4
    [[ -0.41666667,  -0.00000000,   0.00000000], 0.00694444],  # 5
    [[ -0.41666667,   0.08333333,   0.00000000], 0.00694444],  # 6
    [[ -0.41666667,   0.16666667,   0.00000000], 0.00694444],  # 7
    [[ -0.41666667,   0.25000000,   0.00000000], 0.00694444],  # 8
    [[ -0.41666667,   0.33333333,   0.00000000], 0.00694444],  # 9
    # ...
    [[  0.50000000,   0.50000000,   0.00000000], 0.00694444]]  # 143

plane wave coefficients: 7311
cutoff: 600.0 eV

spin-components: 4  # (non-collinear spins)
bands: 42
valence electrons: 27.0
spin-degeneracy: 1
dtype: complex128

memory:
    wave functions: 1_402_748_928  # bytes  (116_895_744 per core)

parallelization:
    kpt:    12
    domain: 1
    band:   1

density:
  components: 4
  grid points: [24 24 98]
  charge: 0.0  # |e|

potential:
  grid points: [24 24 98]

species:
  V:
    name: Vanadium
    id: 7939ce69e6bb5930668dfcf9bb1979c3
    Z: 23.0
    valence: 13
    core: 10
    charge: 0.0
    file: /zhome/86/d/1666/PAW/gpaw-setups-0.9.20000/V.LDA.gz
    compensation charges: {type: gauss,
                           rc: 0.37,
                           lmax: 2}
    cutoffs: {filter: 2.14,
              core: 0.96}
    valence states:
      #              energy  rcut
      - 3s(2.00)   -69.819   1.254
      - 4s(2.00)    -4.846   1.254
      - 3p(6.00)   -43.961   1.281
      - 4p(0.00)    -1.526   1.281
      - 3d(3.00)    -5.381   1.169
      -  d          21.830   1.169
  
    # Using partial waves for V as LCAO basis

  Br:
    name: Bromine
    id: 10a25bbcb3273ec7d8d7f6fc01d2618d
    Z: 35.0
    valence: 7
    core: 28
    charge: 0.0
    file: /zhome/86/d/1666/PAW/gpaw-setups-0.9.20000/Br.LDA.gz
    compensation charges: {type: gauss,
                           rc: 0.35,
                           lmax: 2}
    cutoffs: {filter: 1.98,
              core: 2.38}
    valence states:
      #              energy  rcut
      - 4s(2.00)   -20.306   1.111
      - 4p(5.00)    -8.003   1.111
      -  s           6.906   1.111
      -  p          19.208   1.111
      -  d           0.000   1.111
  
    # Using partial waves for Br as LCAO basis

Reference energy: -167392.690611  # eV

eigensolver:
  name: 'Davidson'
  niter: 2
  converge_bands: 'occupied'
Density mixing:
  Method: sum
  Backend: pulay
  Linear mixing parameter: 0.05
  old densities: 5
  Damping of long wavelength oscillations: 100
occupation numbers:
  Fermi-Dirac:
    width: 0.1000  # eV
  

poisson solver:
  ecut: 4800.0  # eV

xc functional:
  name: None

convergence criteria:
- Maximum [total energy] change in last 3 cyles: 0.0005 eV / valence electron
- Maximum integral of absolute [dens]ity change: 0.0001 electrons / valence electron
- Maximum integral of absolute [eigenst]ate change: 4e-08 eV^2 / valence electron
maximum number of iterations: 333

#      iter     time        total  log10-change:
#                          energy   eigst   dens
# iter:   1 11:40:53   -14.752769                  +1.0,+0.0,+0.0
# iter:   2 11:41:16   -15.162667   -0.17  -1.42   +1.4,-0.0,+0.0
# iter:   3 11:41:38   -15.219463   -0.97  -1.46   +1.8,-0.0,+0.0
# iter:   4 11:42:01   -15.342816   -1.48  -1.56   +2.0,-0.0,+0.0
# iter:   5 11:42:23   -15.569192   -2.00  -1.67   +2.6,-0.0,+0.0
# iter:   6 11:42:46   -15.570970   -2.29  -2.05   +2.6,-0.0,+0.0
# iter:   7 11:43:08   -15.573527c  -2.74  -2.24   +2.7,-0.0,+0.0
# iter:   8 11:43:30   -15.570345c  -3.21  -2.55   +2.7,-0.0,+0.0
# iter:   9 11:43:53   -15.572527c  -3.71  -2.72   +2.8,-0.0,+0.0
# iter:  10 11:44:15   -15.572884c  -3.98  -2.91   +2.8,-0.0,+0.0
# iter:  11 11:44:38   -15.572903c  -4.47  -3.62   +2.8,-0.0,+0.0
# iter:  12 11:45:00   -15.572909c  -4.81  -3.63   +2.8,-0.0,+0.0
# iter:  13 11:45:22   -15.572956c  -5.04  -3.65   +2.8,-0.0,+0.0
# iter:  14 11:45:44   -15.572974c  -5.27  -4.01c  +2.8,-0.0,-0.0
# iter:  15 11:46:07   -15.572978c  -5.57  -4.06c  +2.8,-0.0,-0.0
# iter:  16 11:46:29   -15.572975c  -5.86  -4.29c  +2.8,-0.0,+0.0
# iter:  17 11:46:51   -15.572980c  -6.10  -4.24c  +2.8,-0.0,-0.0
# iter:  18 11:47:13   -15.572982c  -6.24  -4.34c  +2.8,-0.0,-0.0
# iter:  19 11:47:35   -15.572983c  -6.47  -4.46c  +2.8,-0.0,-0.0
# iter:  20 11:47:57   -15.572982c  -6.81  -4.51c  +2.8,-0.0,-0.0
# iter:  21 11:48:19   -15.572982c  -7.05  -4.63c  +2.8,-0.0,-0.0
# iter:  22 11:48:41   -15.572981c  -7.21  -4.72c  +2.8,-0.0,-0.0
# iter:  23 11:49:03   -15.572980c  -7.55c -5.01c  +2.8,-0.0,-0.0
scf_steps: 23
energies:  # eV
  coulomb:          -3.204617
  zero:              0.047759
  xc:              -15.787430
  external:          0.000000
  kinetic:           3.375994
  spinorbit:         0.000000
  entropy:          -0.009374
  total:           -15.577668
  extrapolated:    -15.572980

dipole moment: [-4.657345, -8.497345, -10.138592]  # |e|*Ang

total magnetic moment: [2.790410, -0.001260, -0.000000]

local magnetic moments: [
  [ 2.571167,  0.000000, -0.000000],  # V  0
  [ 0.000026,  0.018171,  0.000000],  # Br 1
  [-0.014715,  0.010660,  0.000000]]  # Br 2


Fermi level: -1.165 eV

kpt = [-0.417, -0.417, 0.000], weight = 0.007:
  Band      eig [eV]   occ [0-1]
     0       -65.913       1.000
   ...
    19        -5.537       1.000
    20        -5.397       1.000
    21        -5.309       1.000
    22        -5.185       1.000
    23        -5.162       1.000
    24        -2.144       1.000
    25        -1.773       0.998
    26        -1.650       0.992
    27        -0.537       0.002
    28        -0.428       0.001
    29         0.111       0.000
    30         0.474       0.000
    31         0.672       0.000
    32         0.981       0.000
    33         1.051       0.000
    34         2.523       0.000
   ...
    41         5.776       0.000

kpt = [-0.417, -0.333, 0.000], weight = 0.007:
  Band      eig [eV]   occ [0-1]
     0       -65.913       1.000
   ...
    19        -5.527       1.000
    20        -5.498       1.000
    21        -5.295       1.000
    22        -5.199       1.000
    23        -5.048       1.000
    24        -2.037       1.000
    25        -1.780       0.998
    26        -1.712       0.996
    27        -0.603       0.004
    28        -0.446       0.001
    29         0.266       0.000
    30         0.492       0.000
    31         0.544       0.000
    32         0.879       0.000
    33         0.994       0.000
    34         2.768       0.000
   ...
    41         5.705       0.000

kpt = [-0.417, -0.250, 0.000], weight = 0.007:
  Band      eig [eV]   occ [0-1]
     0       -65.913       1.000
   ...
    19        -5.651       1.000
    20        -5.560       1.000
    21        -5.317       1.000
    22        -5.131       1.000
    23        -4.967       1.000
    24        -1.893       0.999
    25        -1.835       0.999
    26        -1.744       0.997
    27        -0.667       0.007
    28        -0.484       0.001
    29         0.286       0.000
    30         0.415       0.000
    31         0.521       0.000
    32         0.785       0.000
    33         0.966       0.000
    34         3.196       0.000
   ...
    41         5.360       0.000
(only showing first 3 out of 144 k-points)

Gap: 0.817 eV
Transition (v -> c):
  (s=0, k=137, n=26, [0.50, -0.00, 0.00]) -> (s=0, k=68, n=27, [-0.00, 0.25, 0.00])
# Writing to gsq-07.gpw (mode='')

---

timing:  # [seconds]
  Total: 527.028  # ━━━━━━━━━━━━━━━━━━━━━━━━━━━━━━━━━━━━━━━━━━━━━━━━━━━━━━━━━
  Init:   15.064  # ━╸
  SCF:   511.112  # ━━━━━━━━━━━━━━━━━━━━━━━━━━━━━━━━━━━━━━━━━━━━━━━━━━━━━━━╸

Max RSS: 541.238  # MiB
