#  __  _  _
# | _ |_)|_||  |
# |__||  | ||/\| - 24.1.0

User:   s194113@n-62-29-20
Date:   Tue Apr 23 15:11:27 2024
Arch:   x86_64
Pid:    1040
CWD:    /zhome/87/8/147075/10302/10302_NM/VBr2/V_con
Python: 3.8.5
gpaw:   /zhome/87/8/147075/venv-name/gpaw/gpaw (10808453a8)
_gpaw:  /zhome/87/8/147075/venv-name/gpaw/
        _gpaw.cpython-38-x86_64-linux-gnu.so (10808453a8)
ase:    /zhome/87/8/147075/venv-name/ase/ase (version 3.23.0b1-c36115a2db)
numpy:  /zhome/87/8/147075/venv-name/lib/python3.8/site-packages/numpy (version 1.24.4)
scipy:  /zhome/87/8/147075/venv-name/lib/python3.8/site-packages/scipy (version 1.10.1)
libxc:  4.3.4
units:  Angstrom and eV
cores: 12
OpenMP: False
OMP_NUM_THREADS: 1

---
input parameters:
  kpts: 
    density: 6.0
    gamma: True
  magmoms: [[1, 0, 0], [0, 0, 0], [0, 0, 0]]
  mixer: 
    backend: 'pulay'
    beta: 0.05
    method: 'sum'
    nmaxold: 5
    weight: 100
  mode: 
    name: 'pw'
    ecut: 600
    qspiral: array([0., 0., 0.])
  parallel: 
    kpt: None
    domain: 1
    band: 1
    order: 'kdb'
    stridebands: False
    augment_grids: False
    sl_auto: False
    sl_default: None
    sl_diagonalize: None
    sl_inverse_cholesky: None
    sl_lcao: None
    sl_lrtddft: None
    use_elpa: False
    elpasolver: '2stage'
    buffer_size: None
    gpu: False
  symmetry: 
    point_group: False
    time_reversal: False
  xc: 
    name: 'LDA'

#                        
#                        
#                        
#                        
#                        
#              Br        
#                        
#        V               
#          Br            
#                        
#                        
#                        
#                        
#                        

atoms: [  # symbols, positions [Ang] and initial magnetic moments
  [  V, [   0.000000,    0.000000,    8.513573], [ 1.000,  0.000,  0.000]], # 0
  [ Br, [   1.920000,    1.108513,   10.027147], [ 0.000,  0.000,  0.000]], # 1
  [ Br, [  -0.000000,    2.217025,    7.000000], [ 0.000,  0.000,  0.000]]] # 2

cell: [  # Ang
#     x            y            z
  [   3.840000,    0.000000,    0.000000],
  [  -1.920000,    3.325538,    0.000000],
  [   0.000000,   -0.000000,   17.027147]]

periodic: [True      , True      , False     ]
lengths:  [  3.840000,   3.840000,  17.027147]  # Ang
angles:   [ 90.000000,  90.000000, 120.000000]

symmetry:
  number of symmetries: 1
  rotations: [
    [[ 1,  0,  0], [ 0,  1,  0], [ 0,  0,  1]]]

bz sampling:
  number of bz points: 144
  number of ibz points: 144
  monkhorst-pack size: [12, 12, 1]
  monkhorst-pack shift: [0.041666666666666664, 0.041666666666666664, 0.0]
  points and weights: [
    [[ -0.41666667,  -0.41666667,   0.00000000], 0.00694444],  # 0
    [[ -0.41666667,  -0.33333333,   0.00000000], 0.00694444],  # 1
    [[ -0.41666667,  -0.25000000,   0.00000000], 0.00694444],  # 2
    [[ -0.41666667,  -0.16666667,   0.00000000], 0.00694444],  # 3
    [[ -0.41666667,  -0.08333333,   0.00000000], 0.00694444],  # 4
    [[ -0.41666667,  -0.00000000,   0.00000000], 0.00694444],  # 5
    [[ -0.41666667,   0.08333333,   0.00000000], 0.00694444],  # 6
    [[ -0.41666667,   0.16666667,   0.00000000], 0.00694444],  # 7
    [[ -0.41666667,   0.25000000,   0.00000000], 0.00694444],  # 8
    [[ -0.41666667,   0.33333333,   0.00000000], 0.00694444],  # 9
    # ...
    [[  0.50000000,   0.50000000,   0.00000000], 0.00694444]]  # 143

plane wave coefficients: 7311
cutoff: 600.0 eV

spin-components: 4  # (non-collinear spins)
bands: 42
valence electrons: 27.0
spin-degeneracy: 1
dtype: complex128

memory:
    wave functions: 1_402_748_928  # bytes  (116_895_744 per core)

parallelization:
    kpt:    12
    domain: 1
    band:   1

density:
  components: 4
  grid points: [24 24 98]
  charge: 0.0  # |e|

potential:
  grid points: [24 24 98]

species:
  V:
    name: Vanadium
    id: 7939ce69e6bb5930668dfcf9bb1979c3
    Z: 23.0
    valence: 13
    core: 10
    charge: 0.0
    file: /zhome/86/d/1666/PAW/gpaw-setups-0.9.20000/V.LDA.gz
    compensation charges: {type: gauss,
                           rc: 0.37,
                           lmax: 2}
    cutoffs: {filter: 2.14,
              core: 0.96}
    valence states:
      #              energy  rcut
      - 3s(2.00)   -69.819   1.254
      - 4s(2.00)    -4.846   1.254
      - 3p(6.00)   -43.961   1.281
      - 4p(0.00)    -1.526   1.281
      - 3d(3.00)    -5.381   1.169
      -  d          21.830   1.169
  
    # Using partial waves for V as LCAO basis

  Br:
    name: Bromine
    id: 10a25bbcb3273ec7d8d7f6fc01d2618d
    Z: 35.0
    valence: 7
    core: 28
    charge: 0.0
    file: /zhome/86/d/1666/PAW/gpaw-setups-0.9.20000/Br.LDA.gz
    compensation charges: {type: gauss,
                           rc: 0.35,
                           lmax: 2}
    cutoffs: {filter: 1.98,
              core: 2.38}
    valence states:
      #              energy  rcut
      - 4s(2.00)   -20.306   1.111
      - 4p(5.00)    -8.003   1.111
      -  s           6.906   1.111
      -  p          19.208   1.111
      -  d           0.000   1.111
  
    # Using partial waves for Br as LCAO basis

Reference energy: -167392.690611  # eV

eigensolver:
  name: 'Davidson'
  niter: 2
  converge_bands: 'occupied'
Density mixing:
  Method: sum
  Backend: pulay
  Linear mixing parameter: 0.05
  old densities: 5
  Damping of long wavelength oscillations: 100
occupation numbers:
  Fermi-Dirac:
    width: 0.1000  # eV
  

poisson solver:
  ecut: 4800.0  # eV

xc functional:
  name: None

convergence criteria:
- Maximum [total energy] change in last 3 cyles: 0.0005 eV / valence electron
- Maximum integral of absolute [dens]ity change: 0.0001 electrons / valence electron
- Maximum integral of absolute [eigenst]ate change: 4e-08 eV^2 / valence electron
maximum number of iterations: 333

#      iter     time        total  log10-change:
#                          energy   eigst   dens
# iter:   1 15:12:03   -14.973911                  +1.0,+0.0,+0.0
# iter:   2 15:12:25   -15.110568   -0.65  -1.42   +1.5,-0.0,-0.0
# iter:   3 15:12:48   -15.142147   -1.18  -1.46   +1.9,-0.0,-0.0
# iter:   4 15:13:10   -15.276209   -1.54  -1.56   +2.2,-0.0,-0.0
# iter:   5 15:13:33   -15.527446   -1.99  -1.68   +2.8,-0.0,-0.0
# iter:   6 15:13:55   -15.545756   -2.14  -2.09   +2.9,-0.0,-0.0
# iter:   7 15:14:18   -15.534151   -2.61  -2.30   +2.9,-0.0,-0.0
# iter:   8 15:14:41   -15.533836c  -3.42  -2.66   +2.9,-0.0,-0.0
# iter:   9 15:15:03   -15.537877c  -3.16  -2.75   +3.0,-0.0,+0.0
# iter:  10 15:15:26   -15.536563c  -3.76  -2.66   +3.0,-0.0,+0.0
# iter:  11 15:15:49   -15.536553c  -4.31  -3.56   +3.0,-0.0,+0.0
# iter:  12 15:16:11   -15.536583c  -4.70  -3.63   +3.0,-0.0,+0.0
# iter:  13 15:16:34   -15.536601c  -4.77  -3.71   +3.0,-0.0,-0.0
# iter:  14 15:16:56   -15.536590c  -5.19  -3.91   +3.0,-0.0,-0.0
# iter:  15 15:17:18   -15.536591c  -5.49  -4.30c  +3.0,+0.0,+0.0
# iter:  16 15:17:41   -15.536596c  -5.76  -4.35c  +3.0,-0.0,-0.0
# iter:  17 15:18:03   -15.536598c  -5.93  -4.37c  +3.0,-0.0,+0.0
# iter:  18 15:18:25   -15.536593c  -6.28  -4.40c  +3.0,+0.0,+0.0
# iter:  19 15:18:47   -15.536593c  -6.53  -4.69c  +3.0,+0.0,+0.0
# iter:  20 15:19:10   -15.536593c  -6.79  -4.83c  +3.0,+0.0,+0.0
# iter:  21 15:19:32   -15.536593c  -7.06  -4.97c  +3.0,+0.0,+0.0
# iter:  22 15:19:54   -15.536593c  -7.34  -5.16c  +3.0,+0.0,+0.0
# iter:  23 15:20:16   -15.536593c  -7.59c -5.24c  +3.0,-0.0,-0.0
scf_steps: 23
energies:  # eV
  coulomb:          -3.920755
  zero:              0.044956
  xc:              -16.030144
  external:          0.000000
  kinetic:           4.375490
  spinorbit:         0.000000
  entropy:          -0.012279
  total:           -15.542733
  extrapolated:    -15.536593

dipole moment: [-5.154555, -8.926645, -11.573847]  # |e|*Ang

total magnetic moment: [2.999295, -0.000000, -0.000000]

local magnetic moments: [
  [ 2.643775,  0.000000,  0.000000],  # V  0
  [-0.029657, -0.000000, -0.000000],  # Br 1
  [-0.029657,  0.000000, -0.000000]]  # Br 2


Fermi level: -1.076 eV

kpt = [-0.417, -0.417, 0.000], weight = 0.007:
  Band      eig [eV]   occ [0-1]
     0       -65.827       1.000
   ...
    19        -5.506       1.000
    20        -5.488       1.000
    21        -5.463       1.000
    22        -5.354       1.000
    23        -5.240       1.000
    24        -2.107       1.000
    25        -1.587       0.994
    26        -1.580       0.994
    27        -0.505       0.003
    28        -0.253       0.000
    29        -0.081       0.000
    30         0.707       0.000
    31         0.798       0.000
    32         1.071       0.000
    33         1.280       0.000
    34         2.798       0.000
   ...
    41         5.316       0.000

kpt = [-0.417, -0.333, 0.000], weight = 0.007:
  Band      eig [eV]   occ [0-1]
     0       -65.827       1.000
   ...
    19        -5.682       1.000
    20        -5.566       1.000
    21        -5.405       1.000
    22        -5.378       1.000
    23        -5.207       1.000
    24        -1.932       1.000
    25        -1.645       0.997
    26        -1.579       0.994
    27        -0.548       0.005
    28        -0.324       0.001
    29         0.257       0.000
    30         0.602       0.000
    31         0.726       0.000
    32         1.006       0.000
    33         1.185       0.000
    34         3.204       0.000
   ...
    41         5.900       0.000

kpt = [-0.417, -0.250, 0.000], weight = 0.007:
  Band      eig [eV]   occ [0-1]
     0       -65.827       1.000
   ...
    19        -5.682       1.000
    20        -5.566       1.000
    21        -5.405       1.000
    22        -5.378       1.000
    23        -5.207       1.000
    24        -1.932       1.000
    25        -1.645       0.997
    26        -1.579       0.994
    27        -0.548       0.005
    28        -0.324       0.001
    29         0.257       0.000
    30         0.602       0.000
    31         0.726       0.000
    32         1.006       0.000
    33         1.185       0.000
    34         3.204       0.000
   ...
    41         5.900       0.000
(only showing first 3 out of 144 k-points)

Gap: 0.801 eV
Transition (v -> c):
  (s=0, k=125, n=26, [0.42, -0.00, 0.00]) -> (s=0, k=89, n=27, [0.17, -0.00, 0.00])
# Writing to gsq-30.gpw (mode='')

---

timing:  # [seconds]
  Total: 532.301  # ━━━━━━━━━━━━━━━━━━━━━━━━━━━━━━━━━━━━━━━━━━━━━━━━━━━━━━━━━
  Init:   15.024  # ━╸
  SCF:   514.617  # ━━━━━━━━━━━━━━━━━━━━━━━━━━━━━━━━━━━━━━━━━━━━━━━━━━━━━━━

Max RSS: 942.672  # MiB
