#  __  _  _
# | _ |_)|_||  |
# |__||  | ||/\| - 24.1.0

User:   s194113@n-62-29-20
Date:   Tue Apr 23 12:26:31 2024
Arch:   x86_64
Pid:    1040
CWD:    /zhome/87/8/147075/10302/10302_NM/VBr2/V_con
Python: 3.8.5
gpaw:   /zhome/87/8/147075/venv-name/gpaw/gpaw (10808453a8)
_gpaw:  /zhome/87/8/147075/venv-name/gpaw/
        _gpaw.cpython-38-x86_64-linux-gnu.so (10808453a8)
ase:    /zhome/87/8/147075/venv-name/ase/ase (version 3.23.0b1-c36115a2db)
numpy:  /zhome/87/8/147075/venv-name/lib/python3.8/site-packages/numpy (version 1.24.4)
scipy:  /zhome/87/8/147075/venv-name/lib/python3.8/site-packages/scipy (version 1.10.1)
libxc:  4.3.4
units:  Angstrom and eV
cores: 12
OpenMP: False
OMP_NUM_THREADS: 1

---
input parameters:
  kpts: 
    density: 6.0
    gamma: True
  magmoms: [[1, 0, 0], [0, 0, 0], [0, 0, 0]]
  mixer: 
    backend: 'pulay'
    beta: 0.05
    method: 'sum'
    nmaxold: 5
    weight: 100
  mode: 
    name: 'pw'
    ecut: 600
    qspiral: array([0.44444444, 0.11111111, 0.        ])
  parallel: 
    kpt: None
    domain: 1
    band: 1
    order: 'kdb'
    stridebands: False
    augment_grids: False
    sl_auto: False
    sl_default: None
    sl_diagonalize: None
    sl_inverse_cholesky: None
    sl_lcao: None
    sl_lrtddft: None
    use_elpa: False
    elpasolver: '2stage'
    buffer_size: None
    gpu: False
  symmetry: 
    point_group: False
    time_reversal: False
  xc: 
    name: 'LDA'

#                        
#                        
#                        
#                        
#                        
#              Br        
#                        
#        V               
#          Br            
#                        
#                        
#                        
#                        
#                        

atoms: [  # symbols, positions [Ang] and initial magnetic moments
  [  V, [   0.000000,    0.000000,    8.513573], [ 1.000,  0.000,  0.000]], # 0
  [ Br, [   1.920000,    1.108513,   10.027147], [ 0.000,  0.000,  0.000]], # 1
  [ Br, [  -0.000000,    2.217025,    7.000000], [ 0.000,  0.000,  0.000]]] # 2

cell: [  # Ang
#     x            y            z
  [   3.840000,    0.000000,    0.000000],
  [  -1.920000,    3.325538,    0.000000],
  [   0.000000,   -0.000000,   17.027147]]

periodic: [True      , True      , False     ]
lengths:  [  3.840000,   3.840000,  17.027147]  # Ang
angles:   [ 90.000000,  90.000000, 120.000000]

symmetry:
  number of symmetries: 1
  rotations: [
    [[ 1,  0,  0], [ 0,  1,  0], [ 0,  0,  1]]]

bz sampling:
  number of bz points: 144
  number of ibz points: 144
  monkhorst-pack size: [12, 12, 1]
  monkhorst-pack shift: [0.041666666666666664, 0.041666666666666664, 0.0]
  points and weights: [
    [[ -0.41666667,  -0.41666667,   0.00000000], 0.00694444],  # 0
    [[ -0.41666667,  -0.33333333,   0.00000000], 0.00694444],  # 1
    [[ -0.41666667,  -0.25000000,   0.00000000], 0.00694444],  # 2
    [[ -0.41666667,  -0.16666667,   0.00000000], 0.00694444],  # 3
    [[ -0.41666667,  -0.08333333,   0.00000000], 0.00694444],  # 4
    [[ -0.41666667,  -0.00000000,   0.00000000], 0.00694444],  # 5
    [[ -0.41666667,   0.08333333,   0.00000000], 0.00694444],  # 6
    [[ -0.41666667,   0.16666667,   0.00000000], 0.00694444],  # 7
    [[ -0.41666667,   0.25000000,   0.00000000], 0.00694444],  # 8
    [[ -0.41666667,   0.33333333,   0.00000000], 0.00694444],  # 9
    # ...
    [[  0.50000000,   0.50000000,   0.00000000], 0.00694444]]  # 143

plane wave coefficients: 7311
cutoff: 600.0 eV

spin-components: 4  # (non-collinear spins)
bands: 42
valence electrons: 27.0
spin-degeneracy: 1
dtype: complex128

memory:
    wave functions: 1_402_748_928  # bytes  (116_895_744 per core)

parallelization:
    kpt:    12
    domain: 1
    band:   1

density:
  components: 4
  grid points: [24 24 98]
  charge: 0.0  # |e|

potential:
  grid points: [24 24 98]

species:
  V:
    name: Vanadium
    id: 7939ce69e6bb5930668dfcf9bb1979c3
    Z: 23.0
    valence: 13
    core: 10
    charge: 0.0
    file: /zhome/86/d/1666/PAW/gpaw-setups-0.9.20000/V.LDA.gz
    compensation charges: {type: gauss,
                           rc: 0.37,
                           lmax: 2}
    cutoffs: {filter: 2.14,
              core: 0.96}
    valence states:
      #              energy  rcut
      - 3s(2.00)   -69.819   1.254
      - 4s(2.00)    -4.846   1.254
      - 3p(6.00)   -43.961   1.281
      - 4p(0.00)    -1.526   1.281
      - 3d(3.00)    -5.381   1.169
      -  d          21.830   1.169
  
    # Using partial waves for V as LCAO basis

  Br:
    name: Bromine
    id: 10a25bbcb3273ec7d8d7f6fc01d2618d
    Z: 35.0
    valence: 7
    core: 28
    charge: 0.0
    file: /zhome/86/d/1666/PAW/gpaw-setups-0.9.20000/Br.LDA.gz
    compensation charges: {type: gauss,
                           rc: 0.35,
                           lmax: 2}
    cutoffs: {filter: 1.98,
              core: 2.38}
    valence states:
      #              energy  rcut
      - 4s(2.00)   -20.306   1.111
      - 4p(5.00)    -8.003   1.111
      -  s           6.906   1.111
      -  p          19.208   1.111
      -  d           0.000   1.111
  
    # Using partial waves for Br as LCAO basis

Reference energy: -167392.690611  # eV

eigensolver:
  name: 'Davidson'
  niter: 2
  converge_bands: 'occupied'
Density mixing:
  Method: sum
  Backend: pulay
  Linear mixing parameter: 0.05
  old densities: 5
  Damping of long wavelength oscillations: 100
occupation numbers:
  Fermi-Dirac:
    width: 0.1000  # eV
  

poisson solver:
  ecut: 4800.0  # eV

xc functional:
  name: None

convergence criteria:
- Maximum [total energy] change in last 3 cyles: 0.0005 eV / valence electron
- Maximum integral of absolute [dens]ity change: 0.0001 electrons / valence electron
- Maximum integral of absolute [eigenst]ate change: 4e-08 eV^2 / valence electron
maximum number of iterations: 333

#      iter     time        total  log10-change:
#                          energy   eigst   dens
# iter:   1 12:27:07   -14.418543                  +1.0,+0.0,+0.0
# iter:   2 12:27:30   -15.132613   +0.11  -1.42   +1.4,-0.0,-0.0
# iter:   3 12:27:53   -15.228292   -0.72  -1.46   +1.7,-0.0,-0.0
# iter:   4 12:28:15   -15.357718   -1.31  -1.55   +1.9,-0.0,-0.0
# iter:   5 12:28:38   -15.573883   -1.87  -1.67   +2.4,-0.0,+0.0
# iter:   6 12:29:00   -15.579209   -2.11  -2.02   +2.5,-0.0,+0.0
# iter:   7 12:29:23   -15.584249c  -2.44  -2.26   +2.6,-0.0,+0.0
# iter:   8 12:29:45   -15.579265c  -2.93  -2.50   +2.6,-0.0,+0.0
# iter:   9 12:30:07   -15.580516c  -3.65  -2.70   +2.6,-0.0,+0.0
# iter:  10 12:30:29   -15.581676c  -3.85  -2.91   +2.6,-0.0,+0.0
# iter:  11 12:30:52   -15.581723c  -4.29  -3.58   +2.6,-0.0,+0.0
# iter:  12 12:31:14   -15.581735c  -4.58  -3.64   +2.6,-0.0,+0.0
# iter:  13 12:31:36   -15.581802c  -4.82  -3.67   +2.7,-0.0,+0.0
# iter:  14 12:31:58   -15.581807c  -5.08  -3.77   +2.7,-0.0,+0.0
# iter:  15 12:32:20   -15.581805c  -5.33  -3.81   +2.7,-0.0,+0.0
# iter:  16 12:32:42   -15.581803c  -5.60  -3.83   +2.7,-0.0,+0.0
# iter:  17 12:33:05   -15.581797c  -5.82  -3.86   +2.7,-0.0,+0.0
# iter:  18 12:33:27   -15.581788c  -6.07  -3.90   +2.7,-0.0,+0.0
# iter:  19 12:33:49   -15.581784c  -6.26  -3.95   +2.7,-0.0,+0.0
# iter:  20 12:34:11   -15.581785c  -6.52  -4.04c  +2.7,-0.0,+0.0
# iter:  21 12:34:33   -15.581799c  -6.56  -4.07c  +2.7,-0.0,+0.0
# iter:  22 12:34:55   -15.581800c  -6.79  -4.26c  +2.7,-0.0,+0.0
# iter:  23 12:35:17   -15.581802c  -7.03  -4.31c  +2.7,-0.0,+0.0
# iter:  24 12:35:39   -15.581803c  -6.87  -4.37c  +2.7,-0.0,+0.0
# iter:  25 12:36:01   -15.581802c  -7.29  -4.78c  +2.7,-0.0,+0.0
# iter:  26 12:36:23   -15.581802c  -7.71c -5.20c  +2.7,-0.0,+0.0
scf_steps: 26
energies:  # eV
  coulomb:          -3.035996
  zero:              0.046937
  xc:              -15.725019
  external:          0.000000
  kinetic:           3.136836
  spinorbit:         0.000000
  entropy:          -0.009118
  total:           -15.586361
  extrapolated:    -15.581802

dipole moment: [-4.462063, -8.163966, -9.146787]  # |e|*Ang

total magnetic moment: [2.659605, -0.000124, 0.000000]

local magnetic moments: [
  [ 2.551247,  0.000000,  0.000000],  # V  0
  [ 0.008283,  0.000027,  0.000000],  # Br 1
  [-0.007774,  0.002859, -0.000000]]  # Br 2


Fermi level: -1.198 eV

kpt = [-0.417, -0.417, 0.000], weight = 0.007:
  Band      eig [eV]   occ [0-1]
     0       -65.937       1.000
   ...
    19        -5.555       1.000
    20        -5.523       1.000
    21        -5.402       1.000
    22        -5.286       1.000
    23        -5.174       1.000
    24        -2.034       1.000
    25        -1.861       0.999
    26        -1.682       0.992
    27        -0.593       0.002
    28        -0.451       0.001
    29         0.284       0.000
    30         0.311       0.000
    31         0.613       0.000
    32         0.909       0.000
    33         1.024       0.000
    34         2.745       0.000
   ...
    41         5.444       0.000

kpt = [-0.417, -0.333, 0.000], weight = 0.007:
  Band      eig [eV]   occ [0-1]
     0       -65.938       1.000
   ...
    19        -5.565       1.000
    20        -5.413       1.000
    21        -5.144       1.000
    22        -5.101       1.000
    23        -5.065       1.000
    24        -2.080       1.000
    25        -1.856       0.999
    26        -1.737       0.995
    27        -0.671       0.005
    28        -0.429       0.000
    29         0.263       0.000
    30         0.363       0.000
    31         0.530       0.000
    32         0.800       0.000
    33         0.990       0.000
    34         2.625       0.000
   ...
    41         5.074       0.000

kpt = [-0.417, -0.250, 0.000], weight = 0.007:
  Band      eig [eV]   occ [0-1]
     0       -65.938       1.000
   ...
    19        -5.497       1.000
    20        -5.273       1.000
    21        -5.080       1.000
    22        -4.953       1.000
    23        -4.911       1.000
    24        -2.038       1.000
    25        -1.851       0.999
    26        -1.802       0.998
    27        -0.702       0.007
    28        -0.500       0.001
    29         0.237       0.000
    30         0.339       0.000
    31         0.440       0.000
    32         0.700       0.000
    33         0.878       0.000
    34         2.842       0.000
   ...
    41         4.958       0.000
(only showing first 3 out of 144 k-points)

Gap: 0.819 eV
Transition (v -> c):
  (s=0, k=71, n=26, [-0.00, 0.50, 0.00]) -> (s=0, k=68, n=27, [-0.00, 0.25, 0.00])
# Writing to gsq-12.gpw (mode='')

---

timing:  # [seconds]
  Total: 592.977  # ━━━━━━━━━━━━━━━━━━━━━━━━━━━━━━━━━━━━━━━━━━━━━━━━━━━━━━━━━
  Init:   15.086  # ━╸
  SCF:   576.888  # ━━━━━━━━━━━━━━━━━━━━━━━━━━━━━━━━━━━━━━━━━━━━━━━━━━━━━━━╸

Max RSS: 629.223  # MiB
