#  __  _  _
# | _ |_)|_||  |
# |__||  | ||/\| - 24.1.0

User:   s194113@n-62-29-20
Date:   Tue Apr 23 14:36:39 2024
Arch:   x86_64
Pid:    1040
CWD:    /zhome/87/8/147075/10302/10302_NM/VBr2/V_con
Python: 3.8.5
gpaw:   /zhome/87/8/147075/venv-name/gpaw/gpaw (10808453a8)
_gpaw:  /zhome/87/8/147075/venv-name/gpaw/
        _gpaw.cpython-38-x86_64-linux-gnu.so (10808453a8)
ase:    /zhome/87/8/147075/venv-name/ase/ase (version 3.23.0b1-c36115a2db)
numpy:  /zhome/87/8/147075/venv-name/lib/python3.8/site-packages/numpy (version 1.24.4)
scipy:  /zhome/87/8/147075/venv-name/lib/python3.8/site-packages/scipy (version 1.10.1)
libxc:  4.3.4
units:  Angstrom and eV
cores: 12
OpenMP: False
OMP_NUM_THREADS: 1

---
input parameters:
  kpts: 
    density: 6.0
    gamma: True
  magmoms: [[1, 0, 0], [0, 0, 0], [0, 0, 0]]
  mixer: 
    backend: 'pulay'
    beta: 0.05
    method: 'sum'
    nmaxold: 5
    weight: 100
  mode: 
    name: 'pw'
    ecut: 600
    qspiral: array([0.0952381, 0.0952381, 0.       ])
  parallel: 
    kpt: None
    domain: 1
    band: 1
    order: 'kdb'
    stridebands: False
    augment_grids: False
    sl_auto: False
    sl_default: None
    sl_diagonalize: None
    sl_inverse_cholesky: None
    sl_lcao: None
    sl_lrtddft: None
    use_elpa: False
    elpasolver: '2stage'
    buffer_size: None
    gpu: False
  symmetry: 
    point_group: False
    time_reversal: False
  xc: 
    name: 'LDA'

#                        
#                        
#                        
#                        
#                        
#              Br        
#                        
#        V               
#          Br            
#                        
#                        
#                        
#                        
#                        

atoms: [  # symbols, positions [Ang] and initial magnetic moments
  [  V, [   0.000000,    0.000000,    8.513573], [ 1.000,  0.000,  0.000]], # 0
  [ Br, [   1.920000,    1.108513,   10.027147], [ 0.000,  0.000,  0.000]], # 1
  [ Br, [  -0.000000,    2.217025,    7.000000], [ 0.000,  0.000,  0.000]]] # 2

cell: [  # Ang
#     x            y            z
  [   3.840000,    0.000000,    0.000000],
  [  -1.920000,    3.325538,    0.000000],
  [   0.000000,   -0.000000,   17.027147]]

periodic: [True      , True      , False     ]
lengths:  [  3.840000,   3.840000,  17.027147]  # Ang
angles:   [ 90.000000,  90.000000, 120.000000]

symmetry:
  number of symmetries: 1
  rotations: [
    [[ 1,  0,  0], [ 0,  1,  0], [ 0,  0,  1]]]

bz sampling:
  number of bz points: 144
  number of ibz points: 144
  monkhorst-pack size: [12, 12, 1]
  monkhorst-pack shift: [0.041666666666666664, 0.041666666666666664, 0.0]
  points and weights: [
    [[ -0.41666667,  -0.41666667,   0.00000000], 0.00694444],  # 0
    [[ -0.41666667,  -0.33333333,   0.00000000], 0.00694444],  # 1
    [[ -0.41666667,  -0.25000000,   0.00000000], 0.00694444],  # 2
    [[ -0.41666667,  -0.16666667,   0.00000000], 0.00694444],  # 3
    [[ -0.41666667,  -0.08333333,   0.00000000], 0.00694444],  # 4
    [[ -0.41666667,  -0.00000000,   0.00000000], 0.00694444],  # 5
    [[ -0.41666667,   0.08333333,   0.00000000], 0.00694444],  # 6
    [[ -0.41666667,   0.16666667,   0.00000000], 0.00694444],  # 7
    [[ -0.41666667,   0.25000000,   0.00000000], 0.00694444],  # 8
    [[ -0.41666667,   0.33333333,   0.00000000], 0.00694444],  # 9
    # ...
    [[  0.50000000,   0.50000000,   0.00000000], 0.00694444]]  # 143

plane wave coefficients: 7311
cutoff: 600.0 eV

spin-components: 4  # (non-collinear spins)
bands: 42
valence electrons: 27.0
spin-degeneracy: 1
dtype: complex128

memory:
    wave functions: 1_402_748_928  # bytes  (116_895_744 per core)

parallelization:
    kpt:    12
    domain: 1
    band:   1

density:
  components: 4
  grid points: [24 24 98]
  charge: 0.0  # |e|

potential:
  grid points: [24 24 98]

species:
  V:
    name: Vanadium
    id: 7939ce69e6bb5930668dfcf9bb1979c3
    Z: 23.0
    valence: 13
    core: 10
    charge: 0.0
    file: /zhome/86/d/1666/PAW/gpaw-setups-0.9.20000/V.LDA.gz
    compensation charges: {type: gauss,
                           rc: 0.37,
                           lmax: 2}
    cutoffs: {filter: 2.14,
              core: 0.96}
    valence states:
      #              energy  rcut
      - 3s(2.00)   -69.819   1.254
      - 4s(2.00)    -4.846   1.254
      - 3p(6.00)   -43.961   1.281
      - 4p(0.00)    -1.526   1.281
      - 3d(3.00)    -5.381   1.169
      -  d          21.830   1.169
  
    # Using partial waves for V as LCAO basis

  Br:
    name: Bromine
    id: 10a25bbcb3273ec7d8d7f6fc01d2618d
    Z: 35.0
    valence: 7
    core: 28
    charge: 0.0
    file: /zhome/86/d/1666/PAW/gpaw-setups-0.9.20000/Br.LDA.gz
    compensation charges: {type: gauss,
                           rc: 0.35,
                           lmax: 2}
    cutoffs: {filter: 1.98,
              core: 2.38}
    valence states:
      #              energy  rcut
      - 4s(2.00)   -20.306   1.111
      - 4p(5.00)    -8.003   1.111
      -  s           6.906   1.111
      -  p          19.208   1.111
      -  d           0.000   1.111
  
    # Using partial waves for Br as LCAO basis

Reference energy: -167392.690611  # eV

eigensolver:
  name: 'Davidson'
  niter: 2
  converge_bands: 'occupied'
Density mixing:
  Method: sum
  Backend: pulay
  Linear mixing parameter: 0.05
  old densities: 5
  Damping of long wavelength oscillations: 100
occupation numbers:
  Fermi-Dirac:
    width: 0.1000  # eV
  

poisson solver:
  ecut: 4800.0  # eV

xc functional:
  name: None

convergence criteria:
- Maximum [total energy] change in last 3 cyles: 0.0005 eV / valence electron
- Maximum integral of absolute [dens]ity change: 0.0001 electrons / valence electron
- Maximum integral of absolute [eigenst]ate change: 4e-08 eV^2 / valence electron
maximum number of iterations: 333

#      iter     time        total  log10-change:
#                          energy   eigst   dens
# iter:   1 14:37:15   -14.929612                  +1.0,+0.0,+0.0
# iter:   2 14:37:38   -15.133947   -0.54  -1.42   +1.5,-0.0,+0.0
# iter:   3 14:38:00   -15.171441   -1.19  -1.46   +1.9,-0.0,+0.0
# iter:   4 14:38:22   -15.304800   -1.58  -1.56   +2.2,-0.0,+0.0
# iter:   5 14:38:45   -15.544455   -2.07  -1.68   +2.7,-0.0,+0.0
# iter:   6 14:39:07   -15.553478   -2.27  -2.08   +2.8,-0.0,-0.0
# iter:   7 14:39:29   -15.548548c  -2.74  -2.28   +2.9,-0.0,-0.0
# iter:   8 14:39:52   -15.547192c  -3.50  -2.63   +2.9,-0.0,-0.0
# iter:   9 14:40:14   -15.551554c  -3.11  -2.74   +2.9,-0.0,-0.0
# iter:  10 14:40:36   -15.549715c  -3.76  -2.59   +2.9,-0.0,-0.0
# iter:  11 14:40:58   -15.549715c  -4.46  -3.54   +2.9,-0.0,-0.0
# iter:  12 14:41:21   -15.549743c  -4.88  -3.61   +2.9,-0.0,+0.0
# iter:  13 14:41:43   -15.549773c  -4.82  -3.69   +2.9,-0.0,+0.0
# iter:  14 14:42:05   -15.549765c  -5.28  -3.88   +2.9,-0.0,+0.0
# iter:  15 14:42:27   -15.549762c  -5.64  -4.10c  +2.9,-0.0,+0.0
# iter:  16 14:42:49   -15.549763c  -5.89  -4.15c  +2.9,-0.0,+0.0
# iter:  17 14:43:11   -15.549760c  -6.22  -4.41c  +2.9,-0.0,+0.0
# iter:  18 14:43:33   -15.549760c  -6.49  -4.54c  +2.9,-0.0,+0.0
# iter:  19 14:43:55   -15.549761c  -6.72  -4.57c  +2.9,-0.0,+0.0
# iter:  20 14:44:17   -15.549760c  -6.95  -4.81c  +2.9,-0.0,+0.0
# iter:  21 14:44:39   -15.549762c  -7.14  -4.91c  +2.9,-0.0,+0.0
# iter:  22 14:45:02   -15.549762c  -7.50c -5.19c  +2.9,-0.0,+0.0
scf_steps: 22
energies:  # eV
  coulomb:          -3.675073
  zero:              0.045114
  xc:              -15.948039
  external:          0.000000
  kinetic:           4.033511
  spinorbit:         0.000000
  entropy:          -0.010551
  total:           -15.555038
  extrapolated:    -15.549762

dipole moment: [-5.020542, -8.695373, -11.152549]  # |e|*Ang

total magnetic moment: [2.936947, -0.001344, 0.000000]

local magnetic moments: [
  [ 2.619817,  0.000000,  0.000000],  # V  0
  [-0.023004,  0.015630,  0.000000],  # Br 1
  [-0.022954,  0.015704,  0.000000]]  # Br 2


Fermi level: -1.091 eV

kpt = [-0.417, -0.417, 0.000], weight = 0.007:
  Band      eig [eV]   occ [0-1]
     0       -65.853       1.000
   ...
    19        -5.519       1.000
    20        -5.406       1.000
    21        -5.373       1.000
    22        -5.343       1.000
    23        -5.262       1.000
    24        -2.143       1.000
    25        -1.621       0.995
    26        -1.613       0.995
    27        -0.469       0.002
    28        -0.346       0.001
    29        -0.007       0.000
    30         0.694       0.000
    31         0.739       0.000
    32         1.057       0.000
    33         1.210       0.000
    34         2.572       0.000
   ...
    41         5.867       0.000

kpt = [-0.417, -0.333, 0.000], weight = 0.007:
  Band      eig [eV]   occ [0-1]
     0       -65.853       1.000
   ...
    19        -5.597       1.000
    20        -5.520       1.000
    21        -5.414       1.000
    22        -5.358       1.000
    23        -5.233       1.000
    24        -1.976       1.000
    25        -1.695       0.998
    26        -1.610       0.994
    27        -0.515       0.003
    28        -0.393       0.001
    29         0.264       0.000
    30         0.565       0.000
    31         0.703       0.000
    32         1.004       0.000
    33         1.132       0.000
    34         2.923       0.000
   ...
    41         5.775       0.000

kpt = [-0.417, -0.250, 0.000], weight = 0.007:
  Band      eig [eV]   occ [0-1]
     0       -65.853       1.000
   ...
    19        -5.661       1.000
    20        -5.561       1.000
    21        -5.477       1.000
    22        -5.310       1.000
    23        -5.192       1.000
    24        -1.941       1.000
    25        -1.713       0.998
    26        -1.609       0.994
    27        -0.558       0.005
    28        -0.379       0.001
    29         0.267       0.000
    30         0.538       0.000
    31         0.697       0.000
    32         0.983       0.000
    33         1.141       0.000
    34         3.091       0.000
   ...
    41         5.464       0.000
(only showing first 3 out of 144 k-points)

Gap: 0.848 eV
Transition (v -> c):
  (s=0, k=137, n=26, [0.50, -0.00, 0.00]) -> (s=0, k=44, n=27, [-0.17, 0.25, 0.00])
# Writing to gsq-26.gpw (mode='')

---

timing:  # [seconds]
  Total: 503.431  # ━━━━━━━━━━━━━━━━━━━━━━━━━━━━━━━━━━━━━━━━━━━━━━━━━━━━━━━━━
  Init:   15.122  # ━╸
  SCF:   487.481  # ━━━━━━━━━━━━━━━━━━━━━━━━━━━━━━━━━━━━━━━━━━━━━━━━━━━━━━━

Max RSS: 942.672  # MiB
