#  __  _  _
# | _ |_)|_||  |
# |__||  | ||/\| - 24.1.0

User:   s194113@n-62-29-20
Date:   Tue Apr 23 12:16:53 2024
Arch:   x86_64
Pid:    1040
CWD:    /zhome/87/8/147075/10302/10302_NM/VBr2/V_con
Python: 3.8.5
gpaw:   /zhome/87/8/147075/venv-name/gpaw/gpaw (10808453a8)
_gpaw:  /zhome/87/8/147075/venv-name/gpaw/
        _gpaw.cpython-38-x86_64-linux-gnu.so (10808453a8)
ase:    /zhome/87/8/147075/venv-name/ase/ase (version 3.23.0b1-c36115a2db)
numpy:  /zhome/87/8/147075/venv-name/lib/python3.8/site-packages/numpy (version 1.24.4)
scipy:  /zhome/87/8/147075/venv-name/lib/python3.8/site-packages/scipy (version 1.10.1)
libxc:  4.3.4
units:  Angstrom and eV
cores: 12
OpenMP: False
OMP_NUM_THREADS: 1

---
input parameters:
  kpts: 
    density: 6.0
    gamma: True
  magmoms: [[1, 0, 0], [0, 0, 0], [0, 0, 0]]
  mixer: 
    backend: 'pulay'
    beta: 0.05
    method: 'sum'
    nmaxold: 5
    weight: 100
  mode: 
    name: 'pw'
    ecut: 600
    qspiral: array([0.47222222, 0.05555556, 0.        ])
  parallel: 
    kpt: None
    domain: 1
    band: 1
    order: 'kdb'
    stridebands: False
    augment_grids: False
    sl_auto: False
    sl_default: None
    sl_diagonalize: None
    sl_inverse_cholesky: None
    sl_lcao: None
    sl_lrtddft: None
    use_elpa: False
    elpasolver: '2stage'
    buffer_size: None
    gpu: False
  symmetry: 
    point_group: False
    time_reversal: False
  xc: 
    name: 'LDA'

#                        
#                        
#                        
#                        
#                        
#              Br        
#                        
#        V               
#          Br            
#                        
#                        
#                        
#                        
#                        

atoms: [  # symbols, positions [Ang] and initial magnetic moments
  [  V, [   0.000000,    0.000000,    8.513573], [ 1.000,  0.000,  0.000]], # 0
  [ Br, [   1.920000,    1.108513,   10.027147], [ 0.000,  0.000,  0.000]], # 1
  [ Br, [  -0.000000,    2.217025,    7.000000], [ 0.000,  0.000,  0.000]]] # 2

cell: [  # Ang
#     x            y            z
  [   3.840000,    0.000000,    0.000000],
  [  -1.920000,    3.325538,    0.000000],
  [   0.000000,   -0.000000,   17.027147]]

periodic: [True      , True      , False     ]
lengths:  [  3.840000,   3.840000,  17.027147]  # Ang
angles:   [ 90.000000,  90.000000, 120.000000]

symmetry:
  number of symmetries: 1
  rotations: [
    [[ 1,  0,  0], [ 0,  1,  0], [ 0,  0,  1]]]

bz sampling:
  number of bz points: 144
  number of ibz points: 144
  monkhorst-pack size: [12, 12, 1]
  monkhorst-pack shift: [0.041666666666666664, 0.041666666666666664, 0.0]
  points and weights: [
    [[ -0.41666667,  -0.41666667,   0.00000000], 0.00694444],  # 0
    [[ -0.41666667,  -0.33333333,   0.00000000], 0.00694444],  # 1
    [[ -0.41666667,  -0.25000000,   0.00000000], 0.00694444],  # 2
    [[ -0.41666667,  -0.16666667,   0.00000000], 0.00694444],  # 3
    [[ -0.41666667,  -0.08333333,   0.00000000], 0.00694444],  # 4
    [[ -0.41666667,  -0.00000000,   0.00000000], 0.00694444],  # 5
    [[ -0.41666667,   0.08333333,   0.00000000], 0.00694444],  # 6
    [[ -0.41666667,   0.16666667,   0.00000000], 0.00694444],  # 7
    [[ -0.41666667,   0.25000000,   0.00000000], 0.00694444],  # 8
    [[ -0.41666667,   0.33333333,   0.00000000], 0.00694444],  # 9
    # ...
    [[  0.50000000,   0.50000000,   0.00000000], 0.00694444]]  # 143

plane wave coefficients: 7311
cutoff: 600.0 eV

spin-components: 4  # (non-collinear spins)
bands: 42
valence electrons: 27.0
spin-degeneracy: 1
dtype: complex128

memory:
    wave functions: 1_402_748_928  # bytes  (116_895_744 per core)

parallelization:
    kpt:    12
    domain: 1
    band:   1

density:
  components: 4
  grid points: [24 24 98]
  charge: 0.0  # |e|

potential:
  grid points: [24 24 98]

species:
  V:
    name: Vanadium
    id: 7939ce69e6bb5930668dfcf9bb1979c3
    Z: 23.0
    valence: 13
    core: 10
    charge: 0.0
    file: /zhome/86/d/1666/PAW/gpaw-setups-0.9.20000/V.LDA.gz
    compensation charges: {type: gauss,
                           rc: 0.37,
                           lmax: 2}
    cutoffs: {filter: 2.14,
              core: 0.96}
    valence states:
      #              energy  rcut
      - 3s(2.00)   -69.819   1.254
      - 4s(2.00)    -4.846   1.254
      - 3p(6.00)   -43.961   1.281
      - 4p(0.00)    -1.526   1.281
      - 3d(3.00)    -5.381   1.169
      -  d          21.830   1.169
  
    # Using partial waves for V as LCAO basis

  Br:
    name: Bromine
    id: 10a25bbcb3273ec7d8d7f6fc01d2618d
    Z: 35.0
    valence: 7
    core: 28
    charge: 0.0
    file: /zhome/86/d/1666/PAW/gpaw-setups-0.9.20000/Br.LDA.gz
    compensation charges: {type: gauss,
                           rc: 0.35,
                           lmax: 2}
    cutoffs: {filter: 1.98,
              core: 2.38}
    valence states:
      #              energy  rcut
      - 4s(2.00)   -20.306   1.111
      - 4p(5.00)    -8.003   1.111
      -  s           6.906   1.111
      -  p          19.208   1.111
      -  d           0.000   1.111
  
    # Using partial waves for Br as LCAO basis

Reference energy: -167392.690611  # eV

eigensolver:
  name: 'Davidson'
  niter: 2
  converge_bands: 'occupied'
Density mixing:
  Method: sum
  Backend: pulay
  Linear mixing parameter: 0.05
  old densities: 5
  Damping of long wavelength oscillations: 100
occupation numbers:
  Fermi-Dirac:
    width: 0.1000  # eV
  

poisson solver:
  ecut: 4800.0  # eV

xc functional:
  name: None

convergence criteria:
- Maximum [total energy] change in last 3 cyles: 0.0005 eV / valence electron
- Maximum integral of absolute [dens]ity change: 0.0001 electrons / valence electron
- Maximum integral of absolute [eigenst]ate change: 4e-08 eV^2 / valence electron
maximum number of iterations: 333

#      iter     time        total  log10-change:
#                          energy   eigst   dens
# iter:   1 12:17:29   -14.440007                  +1.0,+0.0,+0.0
# iter:   2 12:17:52   -15.132615   +0.09  -1.42   +1.4,-0.0,+0.0
# iter:   3 12:18:14   -15.225566   -0.73  -1.46   +1.7,-0.0,+0.0
# iter:   4 12:18:37   -15.355513   -1.32  -1.55   +1.9,-0.0,+0.0
# iter:   5 12:19:00   -15.571751   -1.88  -1.67   +2.4,-0.0,+0.0
# iter:   6 12:19:23   -15.577584   -2.12  -2.02   +2.5,-0.0,-0.0
# iter:   7 12:19:46   -15.582550c  -2.46  -2.26   +2.6,-0.0,-0.0
# iter:   8 12:20:08   -15.577683c  -2.94  -2.49   +2.6,-0.0,-0.0
# iter:   9 12:20:31   -15.578873c  -3.66  -2.70   +2.6,-0.0,+0.0
# iter:  10 12:20:54   -15.580117c  -3.84  -2.90   +2.6,-0.0,+0.0
# iter:  11 12:21:16   -15.580159c  -4.29  -3.58   +2.7,-0.0,+0.0
# iter:  12 12:21:39   -15.580169c  -4.60  -3.63   +2.7,-0.0,-0.0
# iter:  13 12:22:01   -15.580244c  -4.82  -3.66   +2.7,-0.0,-0.0
# iter:  14 12:22:24   -15.580245c  -5.09  -3.78   +2.7,-0.0,-0.0
# iter:  15 12:22:47   -15.580241c  -5.34  -3.83   +2.7,-0.0,-0.0
# iter:  16 12:23:09   -15.580240c  -5.60  -3.86   +2.7,-0.0,-0.0
# iter:  17 12:23:31   -15.580235c  -5.84  -3.89   +2.7,-0.0,-0.0
# iter:  18 12:23:54   -15.580226c  -6.10  -3.93   +2.7,-0.0,-0.0
# iter:  19 12:24:16   -15.580227c  -6.19  -3.98   +2.7,-0.0,-0.0
# iter:  20 12:24:39   -15.580227c  -6.53  -4.14c  +2.7,-0.0,-0.0
# iter:  21 12:25:01   -15.580234c  -6.42  -4.15c  +2.7,-0.0,-0.0
# iter:  22 12:25:24   -15.580235c  -6.84  -4.28c  +2.7,-0.0,-0.0
# iter:  23 12:25:46   -15.580238c  -7.07  -4.43c  +2.7,-0.0,-0.0
# iter:  24 12:26:08   -15.580239c  -7.29  -4.57c  +2.7,-0.0,-0.0
# iter:  25 12:26:31   -15.580239c  -7.51c -4.66c  +2.7,-0.0,-0.0
scf_steps: 25
energies:  # eV
  coulomb:          -3.063092
  zero:              0.046414
  xc:              -15.733266
  external:          0.000000
  kinetic:           3.174381
  spinorbit:         0.000000
  entropy:          -0.009350
  total:           -15.584914
  extrapolated:    -15.580239

dipole moment: [-4.437963, -8.220352, -9.213500]  # |e|*Ang

total magnetic moment: [2.668103, -0.000068, -0.000000]

local magnetic moments: [
  [ 2.553335,  0.000000, -0.000000],  # V  0
  [ 0.008952,  0.000015, -0.000000],  # Br 1
  [-0.008813,  0.001569, -0.000000]]  # Br 2


Fermi level: -1.201 eV

kpt = [-0.417, -0.417, 0.000], weight = 0.007:
  Band      eig [eV]   occ [0-1]
     0       -65.936       1.000
   ...
    19        -5.551       1.000
    20        -5.477       1.000
    21        -5.357       1.000
    22        -5.288       1.000
    23        -5.118       1.000
    24        -2.051       1.000
    25        -1.882       0.999
    26        -1.668       0.991
    27        -0.596       0.002
    28        -0.442       0.001
    29         0.266       0.000
    30         0.285       0.000
    31         0.632       0.000
    32         0.905       0.000
    33         1.033       0.000
    34         2.721       0.000
   ...
    41         5.337       0.000

kpt = [-0.417, -0.333, 0.000], weight = 0.007:
  Band      eig [eV]   occ [0-1]
     0       -65.936       1.000
   ...
    19        -5.571       1.000
    20        -5.419       1.000
    21        -5.148       1.000
    22        -5.078       1.000
    23        -5.009       1.000
    24        -2.074       1.000
    25        -1.883       0.999
    26        -1.720       0.994
    27        -0.679       0.005
    28        -0.423       0.000
    29         0.263       0.000
    30         0.341       0.000
    31         0.550       0.000
    32         0.777       0.000
    33         0.997       0.000
    34         2.665       0.000
   ...
    41         5.123       0.000

kpt = [-0.417, -0.250, 0.000], weight = 0.007:
  Band      eig [eV]   occ [0-1]
     0       -65.936       1.000
   ...
    19        -5.514       1.000
    20        -5.310       1.000
    21        -5.059       1.000
    22        -4.947       1.000
    23        -4.894       1.000
    24        -2.007       1.000
    25        -1.833       0.998
    26        -1.829       0.998
    27        -0.722       0.008
    28        -0.495       0.001
    29         0.266       0.000
    30         0.330       0.000
    31         0.427       0.000
    32         0.668       0.000
    33         0.880       0.000
    34         2.966       0.000
   ...
    41         4.846       0.000
(only showing first 3 out of 144 k-points)

Gap: 0.826 eV
Transition (v -> c):
  (s=0, k=71, n=26, [-0.00, 0.50, 0.00]) -> (s=0, k=62, n=27, [-0.00, -0.25, 0.00])
# Writing to gsq-11.gpw (mode='')

---

timing:  # [seconds]
  Total: 578.931  # ━━━━━━━━━━━━━━━━━━━━━━━━━━━━━━━━━━━━━━━━━━━━━━━━━━━━━━━━━
  Init:   15.117  # ━╸
  SCF:   562.886  # ━━━━━━━━━━━━━━━━━━━━━━━━━━━━━━━━━━━━━━━━━━━━━━━━━━━━━━━╸

Max RSS: 608.863  # MiB
