#  __  _  _
# | _ |_)|_||  |
# |__||  | ||/\| - 24.1.0

User:   s194113@n-62-29-20
Date:   Tue Apr 23 11:57:50 2024
Arch:   x86_64
Pid:    1040
CWD:    /zhome/87/8/147075/10302/10302_NM/VBr2/V_con
Python: 3.8.5
gpaw:   /zhome/87/8/147075/venv-name/gpaw/gpaw (10808453a8)
_gpaw:  /zhome/87/8/147075/venv-name/gpaw/
        _gpaw.cpython-38-x86_64-linux-gnu.so (10808453a8)
ase:    /zhome/87/8/147075/venv-name/ase/ase (version 3.23.0b1-c36115a2db)
numpy:  /zhome/87/8/147075/venv-name/lib/python3.8/site-packages/numpy (version 1.24.4)
scipy:  /zhome/87/8/147075/venv-name/lib/python3.8/site-packages/scipy (version 1.10.1)
libxc:  4.3.4
units:  Angstrom and eV
cores: 12
OpenMP: False
OMP_NUM_THREADS: 1

---
input parameters:
  kpts: 
    density: 6.0
    gamma: True
  magmoms: [[1, 0, 0], [0, 0, 0], [0, 0, 0]]
  mixer: 
    backend: 'pulay'
    beta: 0.05
    method: 'sum'
    nmaxold: 5
    weight: 100
  mode: 
    name: 'pw'
    ecut: 600
    qspiral: array([0.45, 0.  , 0.  ])
  parallel: 
    kpt: None
    domain: 1
    band: 1
    order: 'kdb'
    stridebands: False
    augment_grids: False
    sl_auto: False
    sl_default: None
    sl_diagonalize: None
    sl_inverse_cholesky: None
    sl_lcao: None
    sl_lrtddft: None
    use_elpa: False
    elpasolver: '2stage'
    buffer_size: None
    gpu: False
  symmetry: 
    point_group: False
    time_reversal: False
  xc: 
    name: 'LDA'

#                        
#                        
#                        
#                        
#                        
#              Br        
#                        
#        V               
#          Br            
#                        
#                        
#                        
#                        
#                        

atoms: [  # symbols, positions [Ang] and initial magnetic moments
  [  V, [   0.000000,    0.000000,    8.513573], [ 1.000,  0.000,  0.000]], # 0
  [ Br, [   1.920000,    1.108513,   10.027147], [ 0.000,  0.000,  0.000]], # 1
  [ Br, [  -0.000000,    2.217025,    7.000000], [ 0.000,  0.000,  0.000]]] # 2

cell: [  # Ang
#     x            y            z
  [   3.840000,    0.000000,    0.000000],
  [  -1.920000,    3.325538,    0.000000],
  [   0.000000,   -0.000000,   17.027147]]

periodic: [True      , True      , False     ]
lengths:  [  3.840000,   3.840000,  17.027147]  # Ang
angles:   [ 90.000000,  90.000000, 120.000000]

symmetry:
  number of symmetries: 1
  rotations: [
    [[ 1,  0,  0], [ 0,  1,  0], [ 0,  0,  1]]]

bz sampling:
  number of bz points: 144
  number of ibz points: 144
  monkhorst-pack size: [12, 12, 1]
  monkhorst-pack shift: [0.041666666666666664, 0.041666666666666664, 0.0]
  points and weights: [
    [[ -0.41666667,  -0.41666667,   0.00000000], 0.00694444],  # 0
    [[ -0.41666667,  -0.33333333,   0.00000000], 0.00694444],  # 1
    [[ -0.41666667,  -0.25000000,   0.00000000], 0.00694444],  # 2
    [[ -0.41666667,  -0.16666667,   0.00000000], 0.00694444],  # 3
    [[ -0.41666667,  -0.08333333,   0.00000000], 0.00694444],  # 4
    [[ -0.41666667,  -0.00000000,   0.00000000], 0.00694444],  # 5
    [[ -0.41666667,   0.08333333,   0.00000000], 0.00694444],  # 6
    [[ -0.41666667,   0.16666667,   0.00000000], 0.00694444],  # 7
    [[ -0.41666667,   0.25000000,   0.00000000], 0.00694444],  # 8
    [[ -0.41666667,   0.33333333,   0.00000000], 0.00694444],  # 9
    # ...
    [[  0.50000000,   0.50000000,   0.00000000], 0.00694444]]  # 143

plane wave coefficients: 7311
cutoff: 600.0 eV

spin-components: 4  # (non-collinear spins)
bands: 42
valence electrons: 27.0
spin-degeneracy: 1
dtype: complex128

memory:
    wave functions: 1_402_748_928  # bytes  (116_895_744 per core)

parallelization:
    kpt:    12
    domain: 1
    band:   1

density:
  components: 4
  grid points: [24 24 98]
  charge: 0.0  # |e|

potential:
  grid points: [24 24 98]

species:
  V:
    name: Vanadium
    id: 7939ce69e6bb5930668dfcf9bb1979c3
    Z: 23.0
    valence: 13
    core: 10
    charge: 0.0
    file: /zhome/86/d/1666/PAW/gpaw-setups-0.9.20000/V.LDA.gz
    compensation charges: {type: gauss,
                           rc: 0.37,
                           lmax: 2}
    cutoffs: {filter: 2.14,
              core: 0.96}
    valence states:
      #              energy  rcut
      - 3s(2.00)   -69.819   1.254
      - 4s(2.00)    -4.846   1.254
      - 3p(6.00)   -43.961   1.281
      - 4p(0.00)    -1.526   1.281
      - 3d(3.00)    -5.381   1.169
      -  d          21.830   1.169
  
    # Using partial waves for V as LCAO basis

  Br:
    name: Bromine
    id: 10a25bbcb3273ec7d8d7f6fc01d2618d
    Z: 35.0
    valence: 7
    core: 28
    charge: 0.0
    file: /zhome/86/d/1666/PAW/gpaw-setups-0.9.20000/Br.LDA.gz
    compensation charges: {type: gauss,
                           rc: 0.35,
                           lmax: 2}
    cutoffs: {filter: 1.98,
              core: 2.38}
    valence states:
      #              energy  rcut
      - 4s(2.00)   -20.306   1.111
      - 4p(5.00)    -8.003   1.111
      -  s           6.906   1.111
      -  p          19.208   1.111
      -  d           0.000   1.111
  
    # Using partial waves for Br as LCAO basis

Reference energy: -167392.690611  # eV

eigensolver:
  name: 'Davidson'
  niter: 2
  converge_bands: 'occupied'
Density mixing:
  Method: sum
  Backend: pulay
  Linear mixing parameter: 0.05
  old densities: 5
  Damping of long wavelength oscillations: 100
occupation numbers:
  Fermi-Dirac:
    width: 0.1000  # eV
  

poisson solver:
  ecut: 4800.0  # eV

xc functional:
  name: None

convergence criteria:
- Maximum [total energy] change in last 3 cyles: 0.0005 eV / valence electron
- Maximum integral of absolute [dens]ity change: 0.0001 electrons / valence electron
- Maximum integral of absolute [eigenst]ate change: 4e-08 eV^2 / valence electron
maximum number of iterations: 333

#      iter     time        total  log10-change:
#                          energy   eigst   dens
# iter:   1 11:58:26   -14.568032                  +1.0,+0.0,+0.0
# iter:   2 11:58:49   -15.149190   +0.01  -1.42   +1.4,-0.0,+0.0
# iter:   3 11:59:11   -15.226851   -0.82  -1.46   +1.7,-0.0,+0.0
# iter:   4 11:59:34   -15.353937   -1.38  -1.55   +1.9,-0.0,-0.0
# iter:   5 11:59:56   -15.572691   -1.93  -1.67   +2.4,-0.0,-0.0
# iter:   6 12:00:19   -15.576497   -2.18  -2.04   +2.5,-0.0,-0.0
# iter:   7 12:00:41   -15.580659c  -2.59  -2.25   +2.6,-0.0,+0.0
# iter:   8 12:01:04   -15.576302c  -3.03  -2.50   +2.6,-0.0,-0.0
# iter:   9 12:01:26   -15.577760c  -3.70  -2.71   +2.7,-0.0,-0.0
# iter:  10 12:01:48   -15.578823c  -3.92  -2.93   +2.7,-0.0,-0.0
# iter:  11 12:02:11   -15.578855c  -4.37  -3.62   +2.7,-0.0,-0.0
# iter:  12 12:02:33   -15.578857c  -4.69  -3.63   +2.7,-0.0,+0.0
# iter:  13 12:02:55   -15.578864c  -4.97  -3.64   +2.7,-0.0,+0.0
# iter:  14 12:03:18   -15.578909c  -5.17  -3.73   +2.7,-0.0,+0.0
# iter:  15 12:03:40   -15.578941c  -5.39  -3.94   +2.7,-0.0,-0.0
# iter:  16 12:04:02   -15.578943c  -5.67  -4.32c  +2.7,-0.0,-0.0
# iter:  17 12:04:25   -15.578939c  -5.91  -4.41c  +2.7,-0.0,+0.0
# iter:  18 12:04:47   -15.578938c  -6.20  -4.71c  +2.7,-0.0,+0.0
# iter:  19 12:05:09   -15.578938c  -6.44  -4.78c  +2.7,-0.0,+0.0
# iter:  20 12:05:32   -15.578939c  -6.65  -4.82c  +2.7,-0.0,+0.0
# iter:  21 12:05:54   -15.578939c  -6.89  -5.01c  +2.7,-0.0,+0.0
# iter:  22 12:06:16   -15.578939c  -7.12  -5.04c  +2.7,-0.0,+0.0
# iter:  23 12:06:39   -15.578939c  -7.35  -5.06c  +2.7,-0.0,-0.0
# iter:  24 12:07:01   -15.578938c  -7.58c -5.11c  +2.7,-0.0,+0.0
scf_steps: 24
energies:  # eV
  coulomb:          -3.083131
  zero:              0.046711
  xc:              -15.742592
  external:          0.000000
  kinetic:           3.204787
  spinorbit:         0.000000
  entropy:          -0.009428
  total:           -15.583652
  extrapolated:    -15.578938

dipole moment: [-4.494629, -8.345795, -9.543203]  # |e|*Ang

total magnetic moment: [2.709970, -0.000499, 0.000000]

local magnetic moments: [
  [ 2.556426, -0.000000,  0.000000],  # V  0
  [ 0.008069,  0.007123,  0.000000],  # Br 1
  [-0.009875,  0.004281,  0.000000]]  # Br 2


Fermi level: -1.198 eV

kpt = [-0.417, -0.417, 0.000], weight = 0.007:
  Band      eig [eV]   occ [0-1]
     0       -65.933       1.000
   ...
    19        -5.532       1.000
    20        -5.425       1.000
    21        -5.342       1.000
    22        -5.205       1.000
    23        -5.094       1.000
    24        -2.097       1.000
    25        -1.865       0.999
    26        -1.660       0.990
    27        -0.590       0.002
    28        -0.434       0.000
    29         0.202       0.000
    30         0.329       0.000
    31         0.646       0.000
    32         0.914       0.000
    33         1.035       0.000
    34         2.636       0.000
   ...
    41         5.373       0.000

kpt = [-0.417, -0.333, 0.000], weight = 0.007:
  Band      eig [eV]   occ [0-1]
     0       -65.933       1.000
   ...
    19        -5.568       1.000
    20        -5.452       1.000
    21        -5.219       1.000
    22        -5.071       1.000
    23        -4.985       1.000
    24        -2.066       1.000
    25        -1.866       0.999
    26        -1.717       0.994
    27        -0.670       0.005
    28        -0.423       0.000
    29         0.268       0.000
    30         0.366       0.000
    31         0.548       0.000
    32         0.787       0.000
    33         1.002       0.000
    34         2.705       0.000
   ...
    41         5.482       0.000

kpt = [-0.417, -0.250, 0.000], weight = 0.007:
  Band      eig [eV]   occ [0-1]
     0       -65.933       1.000
   ...
    19        -5.583       1.000
    20        -5.422       1.000
    21        -5.129       1.000
    22        -5.030       1.000
    23        -4.883       1.000
    24        -1.943       0.999
    25        -1.843       0.998
    26        -1.818       0.998
    27        -0.716       0.008
    28        -0.496       0.001
    29         0.304       0.000
    30         0.335       0.000
    31         0.439       0.000
    32         0.686       0.000
    33         0.903       0.000
    34         3.083       0.000
   ...
    41         4.976       0.000
(only showing first 3 out of 144 k-points)

Gap: 0.815 eV
Transition (v -> c):
  (s=0, k=137, n=26, [0.50, -0.00, 0.00]) -> (s=0, k=68, n=27, [-0.00, 0.25, 0.00])
# Writing to gsq-09.gpw (mode='')

---

timing:  # [seconds]
  Total: 551.867  # ━━━━━━━━━━━━━━━━━━━━━━━━━━━━━━━━━━━━━━━━━━━━━━━━━━━━━━━━━
  Init:   15.123  # ━╸
  SCF:   536.137  # ━━━━━━━━━━━━━━━━━━━━━━━━━━━━━━━━━━━━━━━━━━━━━━━━━━━━━━━╸

Max RSS: 579.637  # MiB
