#  __  _  _
# | _ |_)|_||  |
# |__||  | ||/\| - 24.1.0

User:   s194113@n-62-29-20
Date:   Tue Apr 23 13:05:08 2024
Arch:   x86_64
Pid:    1040
CWD:    /zhome/87/8/147075/10302/10302_NM/VBr2/V_con
Python: 3.8.5
gpaw:   /zhome/87/8/147075/venv-name/gpaw/gpaw (10808453a8)
_gpaw:  /zhome/87/8/147075/venv-name/gpaw/
        _gpaw.cpython-38-x86_64-linux-gnu.so (10808453a8)
ase:    /zhome/87/8/147075/venv-name/ase/ase (version 3.23.0b1-c36115a2db)
numpy:  /zhome/87/8/147075/venv-name/lib/python3.8/site-packages/numpy (version 1.24.4)
scipy:  /zhome/87/8/147075/venv-name/lib/python3.8/site-packages/scipy (version 1.10.1)
libxc:  4.3.4
units:  Angstrom and eV
cores: 12
OpenMP: False
OMP_NUM_THREADS: 1

---
input parameters:
  kpts: 
    density: 6.0
    gamma: True
  magmoms: [[1, 0, 0], [0, 0, 0], [0, 0, 0]]
  mixer: 
    backend: 'pulay'
    beta: 0.05
    method: 'sum'
    nmaxold: 5
    weight: 100
  mode: 
    name: 'pw'
    ecut: 600
    qspiral: array([0.33333333, 0.33333333, 0.        ])
  parallel: 
    kpt: None
    domain: 1
    band: 1
    order: 'kdb'
    stridebands: False
    augment_grids: False
    sl_auto: False
    sl_default: None
    sl_diagonalize: None
    sl_inverse_cholesky: None
    sl_lcao: None
    sl_lrtddft: None
    use_elpa: False
    elpasolver: '2stage'
    buffer_size: None
    gpu: False
  symmetry: 
    point_group: False
    time_reversal: False
  xc: 
    name: 'LDA'

#                        
#                        
#                        
#                        
#                        
#              Br        
#                        
#        V               
#          Br            
#                        
#                        
#                        
#                        
#                        

atoms: [  # symbols, positions [Ang] and initial magnetic moments
  [  V, [   0.000000,    0.000000,    8.513573], [ 1.000,  0.000,  0.000]], # 0
  [ Br, [   1.920000,    1.108513,   10.027147], [ 0.000,  0.000,  0.000]], # 1
  [ Br, [  -0.000000,    2.217025,    7.000000], [ 0.000,  0.000,  0.000]]] # 2

cell: [  # Ang
#     x            y            z
  [   3.840000,    0.000000,    0.000000],
  [  -1.920000,    3.325538,    0.000000],
  [   0.000000,   -0.000000,   17.027147]]

periodic: [True      , True      , False     ]
lengths:  [  3.840000,   3.840000,  17.027147]  # Ang
angles:   [ 90.000000,  90.000000, 120.000000]

symmetry:
  number of symmetries: 1
  rotations: [
    [[ 1,  0,  0], [ 0,  1,  0], [ 0,  0,  1]]]

bz sampling:
  number of bz points: 144
  number of ibz points: 144
  monkhorst-pack size: [12, 12, 1]
  monkhorst-pack shift: [0.041666666666666664, 0.041666666666666664, 0.0]
  points and weights: [
    [[ -0.41666667,  -0.41666667,   0.00000000], 0.00694444],  # 0
    [[ -0.41666667,  -0.33333333,   0.00000000], 0.00694444],  # 1
    [[ -0.41666667,  -0.25000000,   0.00000000], 0.00694444],  # 2
    [[ -0.41666667,  -0.16666667,   0.00000000], 0.00694444],  # 3
    [[ -0.41666667,  -0.08333333,   0.00000000], 0.00694444],  # 4
    [[ -0.41666667,  -0.00000000,   0.00000000], 0.00694444],  # 5
    [[ -0.41666667,   0.08333333,   0.00000000], 0.00694444],  # 6
    [[ -0.41666667,   0.16666667,   0.00000000], 0.00694444],  # 7
    [[ -0.41666667,   0.25000000,   0.00000000], 0.00694444],  # 8
    [[ -0.41666667,   0.33333333,   0.00000000], 0.00694444],  # 9
    # ...
    [[  0.50000000,   0.50000000,   0.00000000], 0.00694444]]  # 143

plane wave coefficients: 7311
cutoff: 600.0 eV

spin-components: 4  # (non-collinear spins)
bands: 42
valence electrons: 27.0
spin-degeneracy: 1
dtype: complex128

memory:
    wave functions: 1_402_748_928  # bytes  (116_895_744 per core)

parallelization:
    kpt:    12
    domain: 1
    band:   1

density:
  components: 4
  grid points: [24 24 98]
  charge: 0.0  # |e|

potential:
  grid points: [24 24 98]

species:
  V:
    name: Vanadium
    id: 7939ce69e6bb5930668dfcf9bb1979c3
    Z: 23.0
    valence: 13
    core: 10
    charge: 0.0
    file: /zhome/86/d/1666/PAW/gpaw-setups-0.9.20000/V.LDA.gz
    compensation charges: {type: gauss,
                           rc: 0.37,
                           lmax: 2}
    cutoffs: {filter: 2.14,
              core: 0.96}
    valence states:
      #              energy  rcut
      - 3s(2.00)   -69.819   1.254
      - 4s(2.00)    -4.846   1.254
      - 3p(6.00)   -43.961   1.281
      - 4p(0.00)    -1.526   1.281
      - 3d(3.00)    -5.381   1.169
      -  d          21.830   1.169
  
    # Using partial waves for V as LCAO basis

  Br:
    name: Bromine
    id: 10a25bbcb3273ec7d8d7f6fc01d2618d
    Z: 35.0
    valence: 7
    core: 28
    charge: 0.0
    file: /zhome/86/d/1666/PAW/gpaw-setups-0.9.20000/Br.LDA.gz
    compensation charges: {type: gauss,
                           rc: 0.35,
                           lmax: 2}
    cutoffs: {filter: 1.98,
              core: 2.38}
    valence states:
      #              energy  rcut
      - 4s(2.00)   -20.306   1.111
      - 4p(5.00)    -8.003   1.111
      -  s           6.906   1.111
      -  p          19.208   1.111
      -  d           0.000   1.111
  
    # Using partial waves for Br as LCAO basis

Reference energy: -167392.690611  # eV

eigensolver:
  name: 'Davidson'
  niter: 2
  converge_bands: 'occupied'
Density mixing:
  Method: sum
  Backend: pulay
  Linear mixing parameter: 0.05
  old densities: 5
  Damping of long wavelength oscillations: 100
occupation numbers:
  Fermi-Dirac:
    width: 0.1000  # eV
  

poisson solver:
  ecut: 4800.0  # eV

xc functional:
  name: None

convergence criteria:
- Maximum [total energy] change in last 3 cyles: 0.0005 eV / valence electron
- Maximum integral of absolute [dens]ity change: 0.0001 electrons / valence electron
- Maximum integral of absolute [eigenst]ate change: 4e-08 eV^2 / valence electron
maximum number of iterations: 333

#      iter     time        total  log10-change:
#                          energy   eigst   dens
# iter:   1 13:05:45   -14.188564                  +1.0,+0.0,+0.0
# iter:   2 13:06:07   -15.109027   +0.23  -1.43   +1.3,-0.0,+0.0
# iter:   3 13:06:30   -15.233750   -0.59  -1.46   +1.6,-0.0,+0.0
# iter:   4 13:06:52   -15.364354   -1.23  -1.54   +1.8,-0.0,+0.0
# iter:   5 13:07:15   -15.579763   -1.77  -1.67   +2.3,-0.0,+0.0
# iter:   6 13:07:37   -15.584513   -2.02  -1.98   +2.4,-0.0,+0.0
# iter:   7 13:08:00   -15.591917c  -2.28  -2.26   +2.5,-0.0,+0.0
# iter:   8 13:08:22   -15.585387c  -2.79  -2.48   +2.5,-0.0,+0.0
# iter:   9 13:08:44   -15.587998c  -3.47  -2.69   +2.6,-0.0,+0.0
# iter:  10 13:09:07   -15.587831c  -3.86  -3.23   +2.6,-0.0,+0.0
# iter:  11 13:09:29   -15.587879c  -4.18  -3.63   +2.6,-0.0,+0.0
# iter:  12 13:09:52   -15.587932c  -4.42  -3.67   +2.6,-0.0,+0.0
# iter:  13 13:10:14   -15.587930c  -4.69  -3.63   +2.6,+0.0,+0.0
# iter:  14 13:10:36   -15.587940c  -4.95  -3.84   +2.6,+0.0,+0.0
# iter:  15 13:10:59   -15.587961c  -5.17  -3.92   +2.6,+0.0,+0.0
# iter:  16 13:11:21   -15.587960c  -5.35  -4.03c  +2.6,+0.0,+0.0
# iter:  17 13:11:44   -15.587959c  -5.64  -4.11c  +2.6,+0.0,+0.0
# iter:  18 13:12:06   -15.587959c  -5.86  -4.31c  +2.6,+0.0,+0.0
# iter:  19 13:12:28   -15.587957c  -6.11  -4.37c  +2.6,+0.0,+0.0
# iter:  20 13:12:50   -15.587957c  -6.25  -4.40c  +2.6,+0.0,+0.0
# iter:  21 13:13:13   -15.587957c  -6.54  -4.44c  +2.6,+0.0,+0.0
# iter:  22 13:13:35   -15.587955c  -6.51  -4.40c  +2.6,+0.0,+0.0
# iter:  23 13:13:57   -15.587954c  -7.00  -4.87c  +2.6,+0.0,+0.0
# iter:  24 13:14:19   -15.587954c  -7.22  -5.08c  +2.6,+0.0,+0.0
# iter:  25 13:14:42   -15.587954c  -7.41c -5.12c  +2.6,+0.0,+0.0
scf_steps: 25
energies:  # eV
  coulomb:          -2.917806
  zero:              0.046966
  xc:              -15.694073
  external:          0.000000
  kinetic:           2.981183
  spinorbit:         0.000000
  entropy:          -0.008448
  total:           -15.592178
  extrapolated:    -15.587954

dipole moment: [-4.549107, -7.879023, -8.536196]  # |e|*Ang

total magnetic moment: [2.589299, 0.000002, 0.000000]

local magnetic moments: [
  [ 2.543340, -0.000000,  0.000000],  # V  0
  [-0.000041,  0.000069,  0.000000],  # Br 1
  [ 0.000081, -0.000001, -0.000000]]  # Br 2


Fermi level: -1.193 eV

kpt = [-0.417, -0.417, 0.000], weight = 0.007:
  Band      eig [eV]   occ [0-1]
     0       -65.946       1.000
   ...
    19        -5.654       1.000
    20        -5.545       1.000
    21        -5.445       1.000
    22        -5.363       1.000
    23        -5.162       1.000
    24        -1.945       0.999
    25        -1.824       0.998
    26        -1.743       0.996
    27        -0.600       0.003
    28        -0.505       0.001
    29         0.362       0.000
    30         0.401       0.000
    31         0.459       0.000
    32         0.909       0.000
    33         0.942       0.000
    34         2.947       0.000
   ...
    41         5.689       0.000

kpt = [-0.417, -0.333, 0.000], weight = 0.007:
  Band      eig [eV]   occ [0-1]
     0       -65.946       1.000
   ...
    19        -5.529       1.000
    20        -5.419       1.000
    21        -5.310       1.000
    22        -5.271       1.000
    23        -4.990       1.000
    24        -2.057       1.000
    25        -1.883       0.999
    26        -1.754       0.996
    27        -0.617       0.003
    28        -0.492       0.001
    29         0.249       0.000
    30         0.401       0.000
    31         0.471       0.000
    32         0.886       0.000
    33         0.951       0.000
    34         2.622       0.000
   ...
    41         5.115       0.000

kpt = [-0.417, -0.250, 0.000], weight = 0.007:
  Band      eig [eV]   occ [0-1]
     0       -65.946       1.000
   ...
    19        -5.417       1.000
    20        -5.206       1.000
    21        -5.190       1.000
    22        -5.026       1.000
    23        -4.849       1.000
    24        -2.131       1.000
    25        -1.977       1.000
    26        -1.717       0.995
    27        -0.621       0.003
    28        -0.504       0.001
    29         0.126       0.000
    30         0.329       0.000
    31         0.531       0.000
    32         0.832       0.000
    33         0.924       0.000
    34         2.507       0.000
   ...
    41         4.826       0.000
(only showing first 3 out of 144 k-points)

Gap: 0.859 eV
Transition (v -> c):
  (s=0, k=137, n=26, [0.50, -0.00, 0.00]) -> (s=0, k=63, n=27, [-0.00, -0.17, 0.00])
# Writing to gsq-16.gpw (mode='')

---

timing:  # [seconds]
  Total: 574.241  # ━━━━━━━━━━━━━━━━━━━━━━━━━━━━━━━━━━━━━━━━━━━━━━━━━━━━━━━━━
  Init:   15.321  # ━╸
  SCF:   558.115  # ━━━━━━━━━━━━━━━━━━━━━━━━━━━━━━━━━━━━━━━━━━━━━━━━━━━━━━━╸

Max RSS: 671.363  # MiB
