#  __  _  _
# | _ |_)|_||  |
# |__||  | ||/\| - 24.1.0

User:   s194113@n-62-29-20
Date:   Tue Apr 23 14:10:10 2024
Arch:   x86_64
Pid:    1040
CWD:    /zhome/87/8/147075/10302/10302_NM/VBr2/V_con
Python: 3.8.5
gpaw:   /zhome/87/8/147075/venv-name/gpaw/gpaw (10808453a8)
_gpaw:  /zhome/87/8/147075/venv-name/gpaw/
        _gpaw.cpython-38-x86_64-linux-gnu.so (10808453a8)
ase:    /zhome/87/8/147075/venv-name/ase/ase (version 3.23.0b1-c36115a2db)
numpy:  /zhome/87/8/147075/venv-name/lib/python3.8/site-packages/numpy (version 1.24.4)
scipy:  /zhome/87/8/147075/venv-name/lib/python3.8/site-packages/scipy (version 1.10.1)
libxc:  4.3.4
units:  Angstrom and eV
cores: 12
OpenMP: False
OMP_NUM_THREADS: 1

---
input parameters:
  kpts: 
    density: 6.0
    gamma: True
  magmoms: [[1, 0, 0], [0, 0, 0], [0, 0, 0]]
  mixer: 
    backend: 'pulay'
    beta: 0.05
    method: 'sum'
    nmaxold: 5
    weight: 100
  mode: 
    name: 'pw'
    ecut: 600
    qspiral: array([0.16666667, 0.16666667, 0.        ])
  parallel: 
    kpt: None
    domain: 1
    band: 1
    order: 'kdb'
    stridebands: False
    augment_grids: False
    sl_auto: False
    sl_default: None
    sl_diagonalize: None
    sl_inverse_cholesky: None
    sl_lcao: None
    sl_lrtddft: None
    use_elpa: False
    elpasolver: '2stage'
    buffer_size: None
    gpu: False
  symmetry: 
    point_group: False
    time_reversal: False
  xc: 
    name: 'LDA'

#                        
#                        
#                        
#                        
#                        
#              Br        
#                        
#        V               
#          Br            
#                        
#                        
#                        
#                        
#                        

atoms: [  # symbols, positions [Ang] and initial magnetic moments
  [  V, [   0.000000,    0.000000,    8.513573], [ 1.000,  0.000,  0.000]], # 0
  [ Br, [   1.920000,    1.108513,   10.027147], [ 0.000,  0.000,  0.000]], # 1
  [ Br, [  -0.000000,    2.217025,    7.000000], [ 0.000,  0.000,  0.000]]] # 2

cell: [  # Ang
#     x            y            z
  [   3.840000,    0.000000,    0.000000],
  [  -1.920000,    3.325538,    0.000000],
  [   0.000000,   -0.000000,   17.027147]]

periodic: [True      , True      , False     ]
lengths:  [  3.840000,   3.840000,  17.027147]  # Ang
angles:   [ 90.000000,  90.000000, 120.000000]

symmetry:
  number of symmetries: 1
  rotations: [
    [[ 1,  0,  0], [ 0,  1,  0], [ 0,  0,  1]]]

bz sampling:
  number of bz points: 144
  number of ibz points: 144
  monkhorst-pack size: [12, 12, 1]
  monkhorst-pack shift: [0.041666666666666664, 0.041666666666666664, 0.0]
  points and weights: [
    [[ -0.41666667,  -0.41666667,   0.00000000], 0.00694444],  # 0
    [[ -0.41666667,  -0.33333333,   0.00000000], 0.00694444],  # 1
    [[ -0.41666667,  -0.25000000,   0.00000000], 0.00694444],  # 2
    [[ -0.41666667,  -0.16666667,   0.00000000], 0.00694444],  # 3
    [[ -0.41666667,  -0.08333333,   0.00000000], 0.00694444],  # 4
    [[ -0.41666667,  -0.00000000,   0.00000000], 0.00694444],  # 5
    [[ -0.41666667,   0.08333333,   0.00000000], 0.00694444],  # 6
    [[ -0.41666667,   0.16666667,   0.00000000], 0.00694444],  # 7
    [[ -0.41666667,   0.25000000,   0.00000000], 0.00694444],  # 8
    [[ -0.41666667,   0.33333333,   0.00000000], 0.00694444],  # 9
    # ...
    [[  0.50000000,   0.50000000,   0.00000000], 0.00694444]]  # 143

plane wave coefficients: 7311
cutoff: 600.0 eV

spin-components: 4  # (non-collinear spins)
bands: 42
valence electrons: 27.0
spin-degeneracy: 1
dtype: complex128

memory:
    wave functions: 1_402_748_928  # bytes  (116_895_744 per core)

parallelization:
    kpt:    12
    domain: 1
    band:   1

density:
  components: 4
  grid points: [24 24 98]
  charge: 0.0  # |e|

potential:
  grid points: [24 24 98]

species:
  V:
    name: Vanadium
    id: 7939ce69e6bb5930668dfcf9bb1979c3
    Z: 23.0
    valence: 13
    core: 10
    charge: 0.0
    file: /zhome/86/d/1666/PAW/gpaw-setups-0.9.20000/V.LDA.gz
    compensation charges: {type: gauss,
                           rc: 0.37,
                           lmax: 2}
    cutoffs: {filter: 2.14,
              core: 0.96}
    valence states:
      #              energy  rcut
      - 3s(2.00)   -69.819   1.254
      - 4s(2.00)    -4.846   1.254
      - 3p(6.00)   -43.961   1.281
      - 4p(0.00)    -1.526   1.281
      - 3d(3.00)    -5.381   1.169
      -  d          21.830   1.169
  
    # Using partial waves for V as LCAO basis

  Br:
    name: Bromine
    id: 10a25bbcb3273ec7d8d7f6fc01d2618d
    Z: 35.0
    valence: 7
    core: 28
    charge: 0.0
    file: /zhome/86/d/1666/PAW/gpaw-setups-0.9.20000/Br.LDA.gz
    compensation charges: {type: gauss,
                           rc: 0.35,
                           lmax: 2}
    cutoffs: {filter: 1.98,
              core: 2.38}
    valence states:
      #              energy  rcut
      - 4s(2.00)   -20.306   1.111
      - 4p(5.00)    -8.003   1.111
      -  s           6.906   1.111
      -  p          19.208   1.111
      -  d           0.000   1.111
  
    # Using partial waves for Br as LCAO basis

Reference energy: -167392.690611  # eV

eigensolver:
  name: 'Davidson'
  niter: 2
  converge_bands: 'occupied'
Density mixing:
  Method: sum
  Backend: pulay
  Linear mixing parameter: 0.05
  old densities: 5
  Damping of long wavelength oscillations: 100
occupation numbers:
  Fermi-Dirac:
    width: 0.1000  # eV
  

poisson solver:
  ecut: 4800.0  # eV

xc functional:
  name: None

convergence criteria:
- Maximum [total energy] change in last 3 cyles: 0.0005 eV / valence electron
- Maximum integral of absolute [dens]ity change: 0.0001 electrons / valence electron
- Maximum integral of absolute [eigenst]ate change: 4e-08 eV^2 / valence electron
maximum number of iterations: 333

#      iter     time        total  log10-change:
#                          energy   eigst   dens
# iter:   1 14:10:46   -14.830174                  +1.0,+0.0,+0.0
# iter:   2 14:11:09   -15.159360   -0.28  -1.42   +1.5,-0.0,+0.0
# iter:   3 14:11:31   -15.209943   -1.04  -1.46   +1.8,-0.0,+0.0
# iter:   4 14:11:54   -15.336116   -1.51  -1.56   +2.1,-0.0,+0.0
# iter:   5 14:12:16   -15.561776   -2.03  -1.68   +2.6,-0.0,-0.0
# iter:   6 14:12:39   -15.567093   -2.30  -2.07   +2.7,-0.0,+0.0
# iter:   7 14:13:01   -15.566331c  -2.82  -2.25   +2.8,-0.0,-0.0
# iter:   8 14:13:24   -15.564816c  -3.39  -2.63   +2.8,-0.0,-0.0
# iter:   9 14:13:46   -15.568247c  -3.45  -2.73   +2.8,-0.0,-0.0
# iter:  10 14:14:09   -15.567209c  -3.78  -2.65   +2.8,-0.0,-0.0
# iter:  11 14:14:31   -15.567215c  -4.47  -3.60   +2.8,-0.0,-0.0
# iter:  12 14:14:54   -15.567258c  -4.83  -3.63   +2.8,-0.0,-0.0
# iter:  13 14:15:16   -15.567279c  -5.07  -3.67   +2.8,-0.0,-0.0
# iter:  14 14:15:38   -15.567277c  -5.35  -3.76   +2.8,-0.0,-0.0
# iter:  15 14:16:01   -15.567269c  -5.60  -3.79   +2.8,-0.0,-0.0
# iter:  16 14:16:23   -15.567278c  -5.75  -3.83   +2.8,-0.0,-0.0
# iter:  17 14:16:45   -15.567275c  -6.09  -4.07c  +2.8,-0.0,-0.0
# iter:  18 14:17:08   -15.567279c  -6.38  -4.16c  +2.8,-0.0,-0.0
# iter:  19 14:17:30   -15.567283c  -6.51  -4.22c  +2.8,-0.0,-0.0
# iter:  20 14:17:53   -15.567280c  -6.71  -4.29c  +2.8,-0.0,-0.0
# iter:  21 14:18:15   -15.567280c  -7.00  -4.34c  +2.8,-0.0,-0.0
# iter:  22 14:18:38   -15.567279c  -7.34  -4.48c  +2.8,-0.0,-0.0
# iter:  23 14:19:00   -15.567280c  -7.28  -4.54c  +2.8,-0.0,+0.0
# iter:  24 14:19:23   -15.567281c  -7.69c -4.64c  +2.8,-0.0,+0.0
scf_steps: 24
energies:  # eV
  coulomb:          -3.316321
  zero:              0.047199
  xc:              -15.834230
  external:          0.000000
  kinetic:           3.540673
  spinorbit:         0.000000
  entropy:          -0.009202
  total:           -15.571882
  extrapolated:    -15.567281

dipole moment: [-4.886154, -8.462915, -10.481875]  # |e|*Ang

total magnetic moment: [2.840672, -0.001691, 0.000000]

local magnetic moments: [
  [ 2.586255,  0.000000, -0.000000],  # V  0
  [-0.011395,  0.019601,  0.000000],  # Br 1
  [-0.011277,  0.019669,  0.000000]]  # Br 2


Fermi level: -1.130 eV

kpt = [-0.417, -0.417, 0.000], weight = 0.007:
  Band      eig [eV]   occ [0-1]
     0       -65.893       1.000
   ...
    19        -5.496       1.000
    20        -5.407       1.000
    21        -5.345       1.000
    22        -5.310       1.000
    23        -5.248       1.000
    24        -2.159       1.000
    25        -1.685       0.996
    26        -1.659       0.995
    27        -0.454       0.001
    28        -0.435       0.001
    29         0.086       0.000
    30         0.641       0.000
    31         0.642       0.000
    32         1.039       0.000
    33         1.103       0.000
    34         2.473       0.000
   ...
    41         5.666       0.000

kpt = [-0.417, -0.333, 0.000], weight = 0.007:
  Band      eig [eV]   occ [0-1]
     0       -65.893       1.000
   ...
    19        -5.512       1.000
    20        -5.475       1.000
    21        -5.396       1.000
    22        -5.289       1.000
    23        -5.251       1.000
    24        -2.056       1.000
    25        -1.767       0.998
    26        -1.660       0.995
    27        -0.535       0.003
    28        -0.422       0.001
    29         0.266       0.000
    30         0.506       0.000
    31         0.645       0.000
    32         1.004       0.000
    33         1.066       0.000
    34         2.626       0.000
   ...
    41         5.757       0.000

kpt = [-0.417, -0.250, 0.000], weight = 0.007:
  Band      eig [eV]   occ [0-1]
     0       -65.893       1.000
   ...
    19        -5.603       1.000
    20        -5.525       1.000
    21        -5.500       1.000
    22        -5.208       1.000
    23        -5.158       1.000
    24        -1.962       1.000
    25        -1.838       0.999
    26        -1.652       0.995
    27        -0.571       0.004
    28        -0.448       0.001
    29         0.273       0.000
    30         0.432       0.000
    31         0.643       0.000
    32         0.943       0.000
    33         1.064       0.000
    34         2.922       0.000
   ...
    41         5.222       0.000
(only showing first 3 out of 144 k-points)

Gap: 0.881 eV
Transition (v -> c):
  (s=0, k=137, n=26, [0.50, -0.00, 0.00]) -> (s=0, k=54, n=27, [-0.08, 0.08, 0.00])
# Writing to gsq-23.gpw (mode='')

---

timing:  # [seconds]
  Total: 553.696  # ━━━━━━━━━━━━━━━━━━━━━━━━━━━━━━━━━━━━━━━━━━━━━━━━━━━━━━━━━
  Init:   15.097  # ━╸
  SCF:   537.483  # ━━━━━━━━━━━━━━━━━━━━━━━━━━━━━━━━━━━━━━━━━━━━━━━━━━━━━━━╸

Max RSS: 942.672  # MiB
