#  __  _  _
# | _ |_)|_||  |
# |__||  | ||/\| - 24.1.0

User:   s194113@n-62-29-20
Date:   Tue Apr 23 14:53:48 2024
Arch:   x86_64
Pid:    1040
CWD:    /zhome/87/8/147075/10302/10302_NM/VBr2/V_con
Python: 3.8.5
gpaw:   /zhome/87/8/147075/venv-name/gpaw/gpaw (10808453a8)
_gpaw:  /zhome/87/8/147075/venv-name/gpaw/
        _gpaw.cpython-38-x86_64-linux-gnu.so (10808453a8)
ase:    /zhome/87/8/147075/venv-name/ase/ase (version 3.23.0b1-c36115a2db)
numpy:  /zhome/87/8/147075/venv-name/lib/python3.8/site-packages/numpy (version 1.24.4)
scipy:  /zhome/87/8/147075/venv-name/lib/python3.8/site-packages/scipy (version 1.10.1)
libxc:  4.3.4
units:  Angstrom and eV
cores: 12
OpenMP: False
OMP_NUM_THREADS: 1

---
input parameters:
  kpts: 
    density: 6.0
    gamma: True
  magmoms: [[1, 0, 0], [0, 0, 0], [0, 0, 0]]
  mixer: 
    backend: 'pulay'
    beta: 0.05
    method: 'sum'
    nmaxold: 5
    weight: 100
  mode: 
    name: 'pw'
    ecut: 600
    qspiral: array([0.04761905, 0.04761905, 0.        ])
  parallel: 
    kpt: None
    domain: 1
    band: 1
    order: 'kdb'
    stridebands: False
    augment_grids: False
    sl_auto: False
    sl_default: None
    sl_diagonalize: None
    sl_inverse_cholesky: None
    sl_lcao: None
    sl_lrtddft: None
    use_elpa: False
    elpasolver: '2stage'
    buffer_size: None
    gpu: False
  symmetry: 
    point_group: False
    time_reversal: False
  xc: 
    name: 'LDA'

#                        
#                        
#                        
#                        
#                        
#              Br        
#                        
#        V               
#          Br            
#                        
#                        
#                        
#                        
#                        

atoms: [  # symbols, positions [Ang] and initial magnetic moments
  [  V, [   0.000000,    0.000000,    8.513573], [ 1.000,  0.000,  0.000]], # 0
  [ Br, [   1.920000,    1.108513,   10.027147], [ 0.000,  0.000,  0.000]], # 1
  [ Br, [  -0.000000,    2.217025,    7.000000], [ 0.000,  0.000,  0.000]]] # 2

cell: [  # Ang
#     x            y            z
  [   3.840000,    0.000000,    0.000000],
  [  -1.920000,    3.325538,    0.000000],
  [   0.000000,   -0.000000,   17.027147]]

periodic: [True      , True      , False     ]
lengths:  [  3.840000,   3.840000,  17.027147]  # Ang
angles:   [ 90.000000,  90.000000, 120.000000]

symmetry:
  number of symmetries: 1
  rotations: [
    [[ 1,  0,  0], [ 0,  1,  0], [ 0,  0,  1]]]

bz sampling:
  number of bz points: 144
  number of ibz points: 144
  monkhorst-pack size: [12, 12, 1]
  monkhorst-pack shift: [0.041666666666666664, 0.041666666666666664, 0.0]
  points and weights: [
    [[ -0.41666667,  -0.41666667,   0.00000000], 0.00694444],  # 0
    [[ -0.41666667,  -0.33333333,   0.00000000], 0.00694444],  # 1
    [[ -0.41666667,  -0.25000000,   0.00000000], 0.00694444],  # 2
    [[ -0.41666667,  -0.16666667,   0.00000000], 0.00694444],  # 3
    [[ -0.41666667,  -0.08333333,   0.00000000], 0.00694444],  # 4
    [[ -0.41666667,  -0.00000000,   0.00000000], 0.00694444],  # 5
    [[ -0.41666667,   0.08333333,   0.00000000], 0.00694444],  # 6
    [[ -0.41666667,   0.16666667,   0.00000000], 0.00694444],  # 7
    [[ -0.41666667,   0.25000000,   0.00000000], 0.00694444],  # 8
    [[ -0.41666667,   0.33333333,   0.00000000], 0.00694444],  # 9
    # ...
    [[  0.50000000,   0.50000000,   0.00000000], 0.00694444]]  # 143

plane wave coefficients: 7311
cutoff: 600.0 eV

spin-components: 4  # (non-collinear spins)
bands: 42
valence electrons: 27.0
spin-degeneracy: 1
dtype: complex128

memory:
    wave functions: 1_402_748_928  # bytes  (116_895_744 per core)

parallelization:
    kpt:    12
    domain: 1
    band:   1

density:
  components: 4
  grid points: [24 24 98]
  charge: 0.0  # |e|

potential:
  grid points: [24 24 98]

species:
  V:
    name: Vanadium
    id: 7939ce69e6bb5930668dfcf9bb1979c3
    Z: 23.0
    valence: 13
    core: 10
    charge: 0.0
    file: /zhome/86/d/1666/PAW/gpaw-setups-0.9.20000/V.LDA.gz
    compensation charges: {type: gauss,
                           rc: 0.37,
                           lmax: 2}
    cutoffs: {filter: 2.14,
              core: 0.96}
    valence states:
      #              energy  rcut
      - 3s(2.00)   -69.819   1.254
      - 4s(2.00)    -4.846   1.254
      - 3p(6.00)   -43.961   1.281
      - 4p(0.00)    -1.526   1.281
      - 3d(3.00)    -5.381   1.169
      -  d          21.830   1.169
  
    # Using partial waves for V as LCAO basis

  Br:
    name: Bromine
    id: 10a25bbcb3273ec7d8d7f6fc01d2618d
    Z: 35.0
    valence: 7
    core: 28
    charge: 0.0
    file: /zhome/86/d/1666/PAW/gpaw-setups-0.9.20000/Br.LDA.gz
    compensation charges: {type: gauss,
                           rc: 0.35,
                           lmax: 2}
    cutoffs: {filter: 1.98,
              core: 2.38}
    valence states:
      #              energy  rcut
      - 4s(2.00)   -20.306   1.111
      - 4p(5.00)    -8.003   1.111
      -  s           6.906   1.111
      -  p          19.208   1.111
      -  d           0.000   1.111
  
    # Using partial waves for Br as LCAO basis

Reference energy: -167392.690611  # eV

eigensolver:
  name: 'Davidson'
  niter: 2
  converge_bands: 'occupied'
Density mixing:
  Method: sum
  Backend: pulay
  Linear mixing parameter: 0.05
  old densities: 5
  Damping of long wavelength oscillations: 100
occupation numbers:
  Fermi-Dirac:
    width: 0.1000  # eV
  

poisson solver:
  ecut: 4800.0  # eV

xc functional:
  name: None

convergence criteria:
- Maximum [total energy] change in last 3 cyles: 0.0005 eV / valence electron
- Maximum integral of absolute [dens]ity change: 0.0001 electrons / valence electron
- Maximum integral of absolute [eigenst]ate change: 4e-08 eV^2 / valence electron
maximum number of iterations: 333

#      iter     time        total  log10-change:
#                          energy   eigst   dens
# iter:   1 14:54:24   -14.961236                  +1.0,+0.0,+0.0
# iter:   2 14:54:47   -15.117176   -0.64  -1.42   +1.5,+0.0,-0.0
# iter:   3 14:55:09   -15.150253   -1.21  -1.46   +1.9,-0.0,+0.0
# iter:   4 14:55:32   -15.286201   -1.58  -1.56   +2.2,-0.0,-0.0
# iter:   5 14:55:54   -15.533133   -2.05  -1.68   +2.8,-0.0,-0.0
# iter:   6 14:56:17   -15.547119   -2.19  -2.08   +2.9,-0.0,-0.0
# iter:   7 14:56:39   -15.538610   -2.65  -2.30   +2.9,-0.0,+0.0
# iter:   8 14:57:01   -15.537595c  -3.51  -2.64   +2.9,-0.0,+0.0
# iter:   9 14:57:24   -15.542034c  -3.11  -2.75   +3.0,-0.0,-0.0
# iter:  10 14:57:46   -15.540251c  -3.74  -2.62   +3.0,-0.0,+0.0
# iter:  11 14:58:09   -15.540242c  -4.35  -3.53   +3.0,-0.0,+0.0
# iter:  12 14:58:31   -15.540270c  -4.79  -3.62   +3.0,-0.0,-0.0
# iter:  13 14:58:53   -15.540279c  -4.94  -3.71   +3.0,-0.0,+0.0
# iter:  14 14:59:16   -15.540272c  -5.30  -3.93   +3.0,-0.0,+0.0
# iter:  15 14:59:38   -15.540265c  -5.58  -4.02c  +3.0,-0.0,+0.0
# iter:  16 15:00:01   -15.540273c  -5.79  -4.11c  +3.0,-0.0,+0.0
# iter:  17 15:00:23   -15.540272c  -6.11  -4.15c  +3.0,-0.0,+0.0
# iter:  18 15:00:45   -15.540274c  -6.34  -4.17c  +3.0,-0.0,+0.0
# iter:  19 15:01:08   -15.540282c  -6.21  -4.25c  +3.0,-0.0,+0.0
# iter:  20 15:01:30   -15.540280c  -6.46  -4.14c  +3.0,-0.0,+0.0
# iter:  21 15:01:53   -15.540281c  -7.10  -4.58c  +3.0,-0.0,+0.0
# iter:  22 15:02:15   -15.540283c  -7.24  -4.71c  +3.0,-0.0,+0.0
# iter:  23 15:02:37   -15.540283c  -7.49c -4.94c  +3.0,-0.0,+0.0
scf_steps: 23
energies:  # eV
  coulomb:          -3.855903
  zero:              0.044517
  xc:              -16.008123
  external:          0.000000
  kinetic:           4.285090
  spinorbit:         0.000000
  entropy:          -0.011728
  total:           -15.546147
  extrapolated:    -15.540283

dipole moment: [-5.097399, -8.828116, -11.460380]  # |e|*Ang

total magnetic moment: [2.982506, -0.000724, 0.000000]

local magnetic moments: [
  [ 2.637351,  0.000000,  0.000000],  # V  0
  [-0.027963,  0.008600, -0.000000],  # Br 1
  [-0.027949,  0.008646, -0.000000]]  # Br 2


Fermi level: -1.079 eV

kpt = [-0.417, -0.417, 0.000], weight = 0.007:
  Band      eig [eV]   occ [0-1]
     0       -65.834       1.000
   ...
    19        -5.522       1.000
    20        -5.447       1.000
    21        -5.444       1.000
    22        -5.353       1.000
    23        -5.246       1.000
    24        -2.118       1.000
    25        -1.594       0.994
    26        -1.590       0.994
    27        -0.494       0.003
    28        -0.282       0.000
    29        -0.057       0.000
    30         0.705       0.000
    31         0.782       0.000
    32         1.066       0.000
    33         1.262       0.000
    34         2.711       0.000
   ...
    41         5.581       0.000

kpt = [-0.417, -0.333, 0.000], weight = 0.007:
  Band      eig [eV]   occ [0-1]
     0       -65.834       1.000
   ...
    19        -5.652       1.000
    20        -5.554       1.000
    21        -5.406       1.000
    22        -5.375       1.000
    23        -5.215       1.000
    24        -1.943       1.000
    25        -1.658       0.997
    26        -1.587       0.994
    27        -0.538       0.004
    28        -0.344       0.001
    29         0.260       0.000
    30         0.592       0.000
    31         0.721       0.000
    32         1.005       0.000
    33         1.171       0.000
    34         3.119       0.000
   ...
    41         5.620       0.000

kpt = [-0.417, -0.250, 0.000], weight = 0.007:
  Band      eig [eV]   occ [0-1]
     0       -65.834       1.000
   ...
    19        -5.677       1.000
    20        -5.564       1.000
    21        -5.427       1.000
    22        -5.359       1.000
    23        -5.203       1.000
    24        -1.934       1.000
    25        -1.662       0.997
    26        -1.587       0.994
    27        -0.551       0.005
    28        -0.340       0.001
    29         0.260       0.000
    30         0.585       0.000
    31         0.719       0.000
    32         1.000       0.000
    33         1.174       0.000
    34         3.172       0.000
   ...
    41         5.705       0.000
(only showing first 3 out of 144 k-points)

Gap: 0.818 eV
Transition (v -> c):
  (s=0, k=125, n=26, [0.42, -0.00, 0.00]) -> (s=0, k=87, n=27, [0.17, -0.17, 0.00])
# Writing to gsq-28.gpw (mode='')

---

timing:  # [seconds]
  Total: 530.202  # ━━━━━━━━━━━━━━━━━━━━━━━━━━━━━━━━━━━━━━━━━━━━━━━━━━━━━━━━━
  Init:   15.163  # ━╸
  SCF:   513.932  # ━━━━━━━━━━━━━━━━━━━━━━━━━━━━━━━━━━━━━━━━━━━━━━━━━━━━━━━╸

Max RSS: 942.672  # MiB
