#  __  _  _
# | _ |_)|_||  |
# |__||  | ||/\| - 24.1.0

User:   s194113@n-62-29-20
Date:   Tue Apr 23 10:48:25 2024
Arch:   x86_64
Pid:    1040
CWD:    /zhome/87/8/147075/10302/10302_NM/VBr2/V_con
Python: 3.8.5
gpaw:   /zhome/87/8/147075/venv-name/gpaw/gpaw (10808453a8)
_gpaw:  /zhome/87/8/147075/venv-name/gpaw/
        _gpaw.cpython-38-x86_64-linux-gnu.so (10808453a8)
ase:    /zhome/87/8/147075/venv-name/ase/ase (version 3.23.0b1-c36115a2db)
numpy:  /zhome/87/8/147075/venv-name/lib/python3.8/site-packages/numpy (version 1.24.4)
scipy:  /zhome/87/8/147075/venv-name/lib/python3.8/site-packages/scipy (version 1.10.1)
libxc:  4.3.4
units:  Angstrom and eV
cores: 12
OpenMP: False
OMP_NUM_THREADS: 1

---
input parameters:
  kpts: 
    density: 6.0
    gamma: True
  magmoms: [[1, 0, 0], [0, 0, 0], [0, 0, 0]]
  mixer: 
    backend: 'pulay'
    beta: 0.05
    method: 'sum'
    nmaxold: 5
    weight: 100
  mode: 
    name: 'pw'
    ecut: 600
    qspiral: array([0.05, 0.  , 0.  ])
  parallel: 
    kpt: None
    domain: 1
    band: 1
    order: 'kdb'
    stridebands: False
    augment_grids: False
    sl_auto: False
    sl_default: None
    sl_diagonalize: None
    sl_inverse_cholesky: None
    sl_lcao: None
    sl_lrtddft: None
    use_elpa: False
    elpasolver: '2stage'
    buffer_size: None
    gpu: False
  symmetry: 
    point_group: False
    time_reversal: False
  xc: 
    name: 'LDA'

#                        
#                        
#                        
#                        
#                        
#              Br        
#                        
#        V               
#          Br            
#                        
#                        
#                        
#                        
#                        

atoms: [  # symbols, positions [Ang] and initial magnetic moments
  [  V, [   0.000000,    0.000000,    8.513573], [ 1.000,  0.000,  0.000]], # 0
  [ Br, [   1.920000,    1.108513,   10.027147], [ 0.000,  0.000,  0.000]], # 1
  [ Br, [  -0.000000,    2.217025,    7.000000], [ 0.000,  0.000,  0.000]]] # 2

cell: [  # Ang
#     x            y            z
  [   3.840000,    0.000000,    0.000000],
  [  -1.920000,    3.325538,    0.000000],
  [   0.000000,   -0.000000,   17.027147]]

periodic: [True      , True      , False     ]
lengths:  [  3.840000,   3.840000,  17.027147]  # Ang
angles:   [ 90.000000,  90.000000, 120.000000]

symmetry:
  number of symmetries: 1
  rotations: [
    [[ 1,  0,  0], [ 0,  1,  0], [ 0,  0,  1]]]

bz sampling:
  number of bz points: 144
  number of ibz points: 144
  monkhorst-pack size: [12, 12, 1]
  monkhorst-pack shift: [0.041666666666666664, 0.041666666666666664, 0.0]
  points and weights: [
    [[ -0.41666667,  -0.41666667,   0.00000000], 0.00694444],  # 0
    [[ -0.41666667,  -0.33333333,   0.00000000], 0.00694444],  # 1
    [[ -0.41666667,  -0.25000000,   0.00000000], 0.00694444],  # 2
    [[ -0.41666667,  -0.16666667,   0.00000000], 0.00694444],  # 3
    [[ -0.41666667,  -0.08333333,   0.00000000], 0.00694444],  # 4
    [[ -0.41666667,  -0.00000000,   0.00000000], 0.00694444],  # 5
    [[ -0.41666667,   0.08333333,   0.00000000], 0.00694444],  # 6
    [[ -0.41666667,   0.16666667,   0.00000000], 0.00694444],  # 7
    [[ -0.41666667,   0.25000000,   0.00000000], 0.00694444],  # 8
    [[ -0.41666667,   0.33333333,   0.00000000], 0.00694444],  # 9
    # ...
    [[  0.50000000,   0.50000000,   0.00000000], 0.00694444]]  # 143

plane wave coefficients: 7311
cutoff: 600.0 eV

spin-components: 4  # (non-collinear spins)
bands: 42
valence electrons: 27.0
spin-degeneracy: 1
dtype: complex128

memory:
    wave functions: 1_402_748_928  # bytes  (116_895_744 per core)

parallelization:
    kpt:    12
    domain: 1
    band:   1

density:
  components: 4
  grid points: [24 24 98]
  charge: 0.0  # |e|

potential:
  grid points: [24 24 98]

species:
  V:
    name: Vanadium
    id: 7939ce69e6bb5930668dfcf9bb1979c3
    Z: 23.0
    valence: 13
    core: 10
    charge: 0.0
    file: /zhome/86/d/1666/PAW/gpaw-setups-0.9.20000/V.LDA.gz
    compensation charges: {type: gauss,
                           rc: 0.37,
                           lmax: 2}
    cutoffs: {filter: 2.14,
              core: 0.96}
    valence states:
      #              energy  rcut
      - 3s(2.00)   -69.819   1.254
      - 4s(2.00)    -4.846   1.254
      - 3p(6.00)   -43.961   1.281
      - 4p(0.00)    -1.526   1.281
      - 3d(3.00)    -5.381   1.169
      -  d          21.830   1.169
  
    # Using partial waves for V as LCAO basis

  Br:
    name: Bromine
    id: 10a25bbcb3273ec7d8d7f6fc01d2618d
    Z: 35.0
    valence: 7
    core: 28
    charge: 0.0
    file: /zhome/86/d/1666/PAW/gpaw-setups-0.9.20000/Br.LDA.gz
    compensation charges: {type: gauss,
                           rc: 0.35,
                           lmax: 2}
    cutoffs: {filter: 1.98,
              core: 2.38}
    valence states:
      #              energy  rcut
      - 4s(2.00)   -20.306   1.111
      - 4p(5.00)    -8.003   1.111
      -  s           6.906   1.111
      -  p          19.208   1.111
      -  d           0.000   1.111
  
    # Using partial waves for Br as LCAO basis

Reference energy: -167392.690611  # eV

eigensolver:
  name: 'Davidson'
  niter: 2
  converge_bands: 'occupied'
Density mixing:
  Method: sum
  Backend: pulay
  Linear mixing parameter: 0.05
  old densities: 5
  Damping of long wavelength oscillations: 100
occupation numbers:
  Fermi-Dirac:
    width: 0.1000  # eV
  

poisson solver:
  ecut: 4800.0  # eV

xc functional:
  name: None

convergence criteria:
- Maximum [total energy] change in last 3 cyles: 0.0005 eV / valence electron
- Maximum integral of absolute [dens]ity change: 0.0001 electrons / valence electron
- Maximum integral of absolute [eigenst]ate change: 4e-08 eV^2 / valence electron
maximum number of iterations: 333

#      iter     time        total  log10-change:
#                          energy   eigst   dens
# iter:   1 10:49:02   -14.969280                  +1.0,+0.0,+0.0
# iter:   2 10:49:24   -15.113126   -0.65  -1.42   +1.5,+0.0,-0.0
# iter:   3 10:49:46   -15.145335   -1.20  -1.46   +1.9,-0.0,+0.0
# iter:   4 10:50:09   -15.280816   -1.57  -1.56   +2.2,-0.0,+0.0
# iter:   5 10:50:31   -15.529185   -2.03  -1.68   +2.8,-0.0,+0.0
# iter:   6 10:50:54   -15.546265   -2.16  -2.09   +2.9,-0.0,+0.0
# iter:   7 10:51:16   -15.535868   -2.63  -2.30   +2.9,-0.0,+0.0
# iter:   8 10:51:38   -15.535265c  -3.46  -2.65   +2.9,-0.0,-0.0
# iter:   9 10:52:00   -15.539522c  -3.13  -2.75   +3.0,-0.0,+0.0
# iter:  10 10:52:22   -15.537954c  -3.73  -2.63   +3.0,-0.0,+0.0
# iter:  11 10:52:45   -15.537945c  -4.32  -3.54   +3.0,-0.0,-0.0
# iter:  12 10:53:07   -15.537975c  -4.73  -3.62   +3.0,-0.0,-0.0
# iter:  13 10:53:29   -15.537988c  -4.86  -3.71   +3.0,-0.0,+0.0
# iter:  14 10:53:51   -15.537978c  -5.24  -3.93   +3.0,-0.0,+0.0
# iter:  15 10:54:13   -15.537976c  -5.53  -4.10c  +3.0,-0.0,+0.0
# iter:  16 10:54:35   -15.537990c  -5.73  -4.16c  +3.0,-0.0,+0.0
# iter:  17 10:54:57   -15.537985c  -6.05  -4.33c  +3.0,-0.0,-0.0
# iter:  18 10:55:19   -15.537984c  -6.34  -4.53c  +3.0,-0.0,-0.0
# iter:  19 10:55:42   -15.537985c  -6.62  -4.55c  +3.0,-0.0,+0.0
# iter:  20 10:56:04   -15.537986c  -6.89  -4.57c  +3.0,-0.0,+0.0
# iter:  21 10:56:26   -15.537986c  -6.99  -4.61c  +3.0,-0.0,+0.0
# iter:  22 10:56:48   -15.537986c  -7.42c -4.96c  +3.0,-0.0,+0.0
scf_steps: 22
energies:  # eV
  coulomb:          -3.886230
  zero:              0.044748
  xc:              -16.022003
  external:          0.000000
  kinetic:           4.331531
  spinorbit:         0.000000
  entropy:          -0.012064
  total:           -15.544018
  extrapolated:    -15.537986

dipole moment: [-5.102230, -8.891931, -11.531040]  # |e|*Ang

total magnetic moment: [2.993232, -0.000383, 0.000000]

local magnetic moments: [
  [ 2.641663,  0.000000,  0.000000],  # V  0
  [-0.028930,  0.006138, -0.000000],  # Br 1
  [-0.029411,  0.003103, -0.000000]]  # Br 2


Fermi level: -1.077 eV

kpt = [-0.417, -0.417, 0.000], weight = 0.007:
  Band      eig [eV]   occ [0-1]
     0       -65.830       1.000
   ...
    19        -5.517       1.000
    20        -5.475       1.000
    21        -5.460       1.000
    22        -5.348       1.000
    23        -5.238       1.000
    24        -2.110       1.000
    25        -1.589       0.994
    26        -1.584       0.994
    27        -0.503       0.003
    28        -0.263       0.000
    29        -0.073       0.000
    30         0.705       0.000
    31         0.792       0.000
    32         1.068       0.000
    33         1.273       0.000
    34         2.773       0.000
   ...
    41         5.379       0.000

kpt = [-0.417, -0.333, 0.000], weight = 0.007:
  Band      eig [eV]   occ [0-1]
     0       -65.830       1.000
   ...
    19        -5.665       1.000
    20        -5.571       1.000
    21        -5.406       1.000
    22        -5.375       1.000
    23        -5.203       1.000
    24        -1.934       1.000
    25        -1.648       0.997
    26        -1.583       0.994
    27        -0.546       0.005
    28        -0.332       0.001
    29         0.258       0.000
    30         0.600       0.000
    31         0.723       0.000
    32         1.002       0.000
    33         1.178       0.000
    34         3.187       0.000
   ...
    41         5.715       0.000

kpt = [-0.417, -0.250, 0.000], weight = 0.007:
  Band      eig [eV]   occ [0-1]
     0       -65.830       1.000
   ...
    19        -5.675       1.000
    20        -5.574       1.000
    21        -5.414       1.000
    22        -5.368       1.000
    23        -5.198       1.000
    24        -1.931       1.000
    25        -1.649       0.997
    26        -1.583       0.994
    27        -0.551       0.005
    28        -0.331       0.001
    29         0.258       0.000
    30         0.597       0.000
    31         0.723       0.000
    32         1.001       0.000
    33         1.179       0.000
    34         3.208       0.000
   ...
    41         5.706       0.000
(only showing first 3 out of 144 k-points)

Gap: 0.808 eV
Transition (v -> c):
  (s=0, k=125, n=26, [0.42, -0.00, 0.00]) -> (s=0, k=87, n=27, [0.17, -0.17, 0.00])
# Writing to gsq-01.gpw (mode='')

---

timing:  # [seconds]
  Total: 503.375  # ━━━━━━━━━━━━━━━━━━━━━━━━━━━━━━━━━━━━━━━━━━━━━━━━━━━━━━━━━
  Init:   15.156  # ━╸
  SCF:   487.426  # ━━━━━━━━━━━━━━━━━━━━━━━━━━━━━━━━━━━━━━━━━━━━━━━━━━━━━━━

Max RSS: 455.719  # MiB
