#  __  _  _
# | _ |_)|_||  |
# |__||  | ||/\| - 24.1.0

User:   s194113@n-62-29-28
Date:   Sun Apr 21 18:50:38 2024
Arch:   x86_64
Pid:    14076
CWD:    /zhome/87/8/147075/10302/10302_NM/VBr2/V_con
Python: 3.8.5
gpaw:   /zhome/87/8/147075/venv-name/gpaw/gpaw (10808453a8)
_gpaw:  /zhome/87/8/147075/venv-name/gpaw/
        _gpaw.cpython-38-x86_64-linux-gnu.so (10808453a8)
ase:    /zhome/87/8/147075/venv-name/ase/ase (version 3.23.0b1-c36115a2db)
numpy:  /zhome/87/8/147075/venv-name/lib/python3.8/site-packages/numpy (version 1.24.4)
scipy:  /zhome/87/8/147075/venv-name/lib/python3.8/site-packages/scipy (version 1.10.1)
libxc:  4.3.4
units:  Angstrom and eV
cores: 12
OpenMP: False
OMP_NUM_THREADS: 1

---
input parameters:
  kpts: 
    density: 6.0
    gamma: True
  magmoms: [[1, 0, 0], [0, 0, 0], [0, 0, 0]]
  mixer: 
    backend: 'pulay'
    beta: 0.05
    method: 'sum'
    nmaxold: 5
    weight: 100
  mode: 
    name: 'pw'
    ecut: 600
    qspiral: array([0.30952381, 0.30952381, 0.        ])
  parallel: 
    kpt: None
    domain: 1
    band: 1
    order: 'kdb'
    stridebands: False
    augment_grids: False
    sl_auto: False
    sl_default: None
    sl_diagonalize: None
    sl_inverse_cholesky: None
    sl_lcao: None
    sl_lrtddft: None
    use_elpa: False
    elpasolver: '2stage'
    buffer_size: None
    gpu: False
  symmetry: 
    point_group: False
    time_reversal: False
  xc: 
    name: 'LDA'

#                        
#                        
#                        
#                        
#                        
#              Br        
#                        
#        V               
#          Br            
#                        
#                        
#                        
#                        
#                        

atoms: [  # symbols, positions [Ang] and initial magnetic moments
  [  V, [   0.000000,    0.000000,    7.513573], [ 1.000,  0.000,  0.000]], # 0
  [ Br, [   1.920000,    1.108513,    9.027147], [ 0.000,  0.000,  0.000]], # 1
  [ Br, [  -0.000000,    2.217025,    6.000000], [ 0.000,  0.000,  0.000]]] # 2

cell: [  # Ang
#     x            y            z
  [   3.840000,    0.000000,    0.000000],
  [  -1.920000,    3.325538,    0.000000],
  [   0.000000,   -0.000000,   15.027147]]

periodic: [True      , True      , False     ]
lengths:  [  3.840000,   3.840000,  15.027147]  # Ang
angles:   [ 90.000000,  90.000000, 120.000000]

symmetry:
  number of symmetries: 1
  rotations: [
    [[ 1,  0,  0], [ 0,  1,  0], [ 0,  0,  1]]]

bz sampling:
  number of bz points: 144
  number of ibz points: 144
  monkhorst-pack size: [12, 12, 1]
  monkhorst-pack shift: [0.041666666666666664, 0.041666666666666664, 0.0]
  points and weights: [
    [[ -0.41666667,  -0.41666667,   0.00000000], 0.00694444],  # 0
    [[ -0.41666667,  -0.33333333,   0.00000000], 0.00694444],  # 1
    [[ -0.41666667,  -0.25000000,   0.00000000], 0.00694444],  # 2
    [[ -0.41666667,  -0.16666667,   0.00000000], 0.00694444],  # 3
    [[ -0.41666667,  -0.08333333,   0.00000000], 0.00694444],  # 4
    [[ -0.41666667,  -0.00000000,   0.00000000], 0.00694444],  # 5
    [[ -0.41666667,   0.08333333,   0.00000000], 0.00694444],  # 6
    [[ -0.41666667,   0.16666667,   0.00000000], 0.00694444],  # 7
    [[ -0.41666667,   0.25000000,   0.00000000], 0.00694444],  # 8
    [[ -0.41666667,   0.33333333,   0.00000000], 0.00694444],  # 9
    # ...
    [[  0.50000000,   0.50000000,   0.00000000], 0.00694444]]  # 143

plane wave coefficients: 6439
cutoff: 600.0 eV

spin-components: 4  # (non-collinear spins)
bands: 42
valence electrons: 27.0
spin-degeneracy: 1
dtype: complex128

memory:
    wave functions: 1_238_243_328  # bytes  (103_186_944 per core)

parallelization:
    kpt:    12
    domain: 1
    band:   1

density:
  components: 4
  grid points: [24 24 90]
  charge: 0.0  # |e|

potential:
  grid points: [24 24 90]

species:
  V:
    name: Vanadium
    id: 7939ce69e6bb5930668dfcf9bb1979c3
    Z: 23.0
    valence: 13
    core: 10
    charge: 0.0
    file: /zhome/86/d/1666/PAW/gpaw-setups-0.9.20000/V.LDA.gz
    compensation charges: {type: gauss,
                           rc: 0.37,
                           lmax: 2}
    cutoffs: {filter: 2.14,
              core: 0.96}
    valence states:
      #              energy  rcut
      - 3s(2.00)   -69.819   1.254
      - 4s(2.00)    -4.846   1.254
      - 3p(6.00)   -43.961   1.281
      - 4p(0.00)    -1.526   1.281
      - 3d(3.00)    -5.381   1.169
      -  d          21.830   1.169
  
    # Using partial waves for V as LCAO basis

  Br:
    name: Bromine
    id: 10a25bbcb3273ec7d8d7f6fc01d2618d
    Z: 35.0
    valence: 7
    core: 28
    charge: 0.0
    file: /zhome/86/d/1666/PAW/gpaw-setups-0.9.20000/Br.LDA.gz
    compensation charges: {type: gauss,
                           rc: 0.35,
                           lmax: 2}
    cutoffs: {filter: 1.98,
              core: 2.38}
    valence states:
      #              energy  rcut
      - 4s(2.00)   -20.306   1.111
      - 4p(5.00)    -8.003   1.111
      -  s           6.906   1.111
      -  p          19.208   1.111
      -  d           0.000   1.111
  
    # Using partial waves for Br as LCAO basis

Reference energy: -167392.690611  # eV

eigensolver:
  name: 'Davidson'
  niter: 2
  converge_bands: 'occupied'
Density mixing:
  Method: sum
  Backend: pulay
  Linear mixing parameter: 0.05
  old densities: 5
  Damping of long wavelength oscillations: 100
occupation numbers:
  Fermi-Dirac:
    width: 0.1000  # eV
  

poisson solver:
  ecut: 4800.0  # eV

xc functional:
  name: None

convergence criteria:
- Maximum [total energy] change in last 3 cyles: 0.0005 eV / valence electron
- Maximum integral of absolute [dens]ity change: 0.0001 electrons / valence electron
- Maximum integral of absolute [eigenst]ate change: 4e-08 eV^2 / valence electron
maximum number of iterations: 333

#      iter     time        total  log10-change:
#                          energy   eigst   dens
# iter:   1 18:51:11   -14.327878                  +1.0,+0.0,+0.0
# iter:   2 18:51:32   -15.130641   +0.16  -1.43   +1.4,-0.0,+0.0
# iter:   3 18:51:52   -15.237502   -0.66  -1.46   +1.6,-0.0,+0.0
# iter:   4 18:52:12   -15.365771   -1.28  -1.55   +1.9,-0.0,+0.0
# iter:   5 18:52:32   -15.582922   -1.83  -1.67   +2.3,-0.0,+0.0
# iter:   6 18:52:52   -15.584621   -2.05  -2.00   +2.5,-0.0,+0.0
# iter:   7 18:53:13   -15.590765c  -2.36  -2.26   +2.5,-0.0,+0.0
# iter:   8 18:53:33   -15.584991c  -2.88  -2.50   +2.5,-0.0,-0.0
# iter:   9 18:53:53   -15.586726c  -3.65  -2.70   +2.6,-0.0,-0.0
# iter:  10 18:54:13   -15.587380c  -3.92  -3.01   +2.6,-0.0,+0.0
# iter:  11 18:54:33   -15.587448c  -4.29  -3.61   +2.6,-0.0,-0.0
# iter:  12 18:54:53   -15.587465c  -4.58  -3.67   +2.6,-0.0,+0.0
# iter:  13 18:55:13   -15.587511c  -4.83  -3.70   +2.6,-0.0,+0.0
# iter:  14 18:55:33   -15.587530c  -5.07  -3.81   +2.6,-0.0,+0.0
# iter:  15 18:55:53   -15.587532c  -5.35  -4.06c  +2.6,-0.0,+0.0
# iter:  16 18:56:13   -15.587532c  -5.63  -4.24c  +2.6,-0.0,+0.0
# iter:  17 18:56:34   -15.587530c  -5.87  -4.30c  +2.6,-0.0,+0.0
# iter:  18 18:56:54   -15.587527c  -6.11  -4.34c  +2.6,-0.0,-0.0
# iter:  19 18:57:14   -15.587526c  -6.33  -4.35c  +2.6,-0.0,-0.0
# iter:  20 18:57:34   -15.587527c  -6.53  -4.40c  +2.6,-0.0,+0.0
# iter:  21 18:57:53   -15.587527c  -6.74  -4.49c  +2.6,-0.0,-0.0
# iter:  22 18:58:13   -15.587527c  -6.96  -4.67c  +2.6,-0.0,-0.0
# iter:  23 18:58:33   -15.587528c  -7.18  -4.83c  +2.6,-0.0,+0.0
# iter:  24 18:58:53   -15.587528c  -7.42c -5.03c  +2.6,-0.0,+0.0
scf_steps: 24
energies:  # eV
  coulomb:          -2.927649
  zero:              0.046466
  xc:              -15.696619
  external:          0.000000
  kinetic:           2.994510
  spinorbit:         0.000000
  entropy:          -0.008470
  total:           -15.591763
  extrapolated:    -15.587528

dipole moment: [-4.598956, -7.965432, -7.807629]  # |e|*Ang

total magnetic moment: [2.625892, -0.000241, 0.000000]

local magnetic moments: [
  [ 2.543912, -0.000000, -0.000000],  # V  0
  [ 0.001042,  0.002859,  0.000000],  # Br 1
  [ 0.001181,  0.002804,  0.000000]]  # Br 2


Fermi level: -0.767 eV

kpt = [-0.417, -0.417, 0.000], weight = 0.007:
  Band      eig [eV]   occ [0-1]
     0       -65.519       1.000
   ...
    19        -5.191       1.000
    20        -5.117       1.000
    21        -5.016       1.000
    22        -4.934       1.000
    23        -4.781       1.000
    24        -1.558       1.000
    25        -1.384       0.998
    26        -1.310       0.996
    27        -0.167       0.002
    28        -0.065       0.001
    29         0.746       0.000
    30         0.857       0.000
    31         0.909       0.000
    32         1.353       0.000
    33         1.382       0.000
    34         3.265       0.000
   ...
    41         6.148       0.000

kpt = [-0.417, -0.333, 0.000], weight = 0.007:
  Band      eig [eV]   occ [0-1]
     0       -65.519       1.000
   ...
    19        -5.105       1.000
    20        -4.962       1.000
    21        -4.909       1.000
    22        -4.843       1.000
    23        -4.616       1.000
    24        -1.661       1.000
    25        -1.448       0.999
    26        -1.319       0.996
    27        -0.197       0.003
    28        -0.037       0.001
    29         0.671       0.000
    30         0.836       0.000
    31         0.917       0.000
    32         1.332       0.000
    33         1.401       0.000
    34         2.978       0.000
   ...
    41         5.492       0.000

kpt = [-0.417, -0.250, 0.000], weight = 0.007:
  Band      eig [eV]   occ [0-1]
     0       -65.520       1.000
   ...
    19        -5.009       1.000
    20        -4.803       1.000
    21        -4.757       1.000
    22        -4.671       1.000
    23        -4.469       1.000
    24        -1.690       1.000
    25        -1.553       1.000
    26        -1.287       0.995
    27        -0.178       0.003
    28        -0.082       0.001
    29         0.582       0.000
    30         0.748       0.000
    31         0.967       0.000
    32         1.288       0.000
    33         1.343       0.000
    34         2.949       0.000
   ...
    41         5.255       0.000
(only showing first 3 out of 144 k-points)

Gap: 0.852 eV
Transition (v -> c):
  (s=0, k=137, n=26, [0.50, -0.00, 0.00]) -> (s=0, k=15, n=27, [-0.33, -0.17, 0.00])
# Writing to gsq-17.gpw (mode='')

---

timing:  # [seconds]
  Total: 496.334  # ━━━━━━━━━━━━━━━━━━━━━━━━━━━━━━━━━━━━━━━━━━━━━━━━━━━━━━━━━
  Init:   14.337  # ━╸
  SCF:   480.689  # ━━━━━━━━━━━━━━━━━━━━━━━━━━━━━━━━━━━━━━━━━━━━━━━━━━━━━━━

Max RSS: 667.270  # MiB
