#  __  _  _
# | _ |_)|_||  |
# |__||  | ||/\| - 24.1.0

User:   s194113@n-62-29-20
Date:   Tue Apr 23 14:01:01 2024
Arch:   x86_64
Pid:    1040
CWD:    /zhome/87/8/147075/10302/10302_NM/VBr2/V_con
Python: 3.8.5
gpaw:   /zhome/87/8/147075/venv-name/gpaw/gpaw (10808453a8)
_gpaw:  /zhome/87/8/147075/venv-name/gpaw/
        _gpaw.cpython-38-x86_64-linux-gnu.so (10808453a8)
ase:    /zhome/87/8/147075/venv-name/ase/ase (version 3.23.0b1-c36115a2db)
numpy:  /zhome/87/8/147075/venv-name/lib/python3.8/site-packages/numpy (version 1.24.4)
scipy:  /zhome/87/8/147075/venv-name/lib/python3.8/site-packages/scipy (version 1.10.1)
libxc:  4.3.4
units:  Angstrom and eV
cores: 12
OpenMP: False
OMP_NUM_THREADS: 1

---
input parameters:
  kpts: 
    density: 6.0
    gamma: True
  magmoms: [[1, 0, 0], [0, 0, 0], [0, 0, 0]]
  mixer: 
    backend: 'pulay'
    beta: 0.05
    method: 'sum'
    nmaxold: 5
    weight: 100
  mode: 
    name: 'pw'
    ecut: 600
    qspiral: array([0.19047619, 0.19047619, 0.        ])
  parallel: 
    kpt: None
    domain: 1
    band: 1
    order: 'kdb'
    stridebands: False
    augment_grids: False
    sl_auto: False
    sl_default: None
    sl_diagonalize: None
    sl_inverse_cholesky: None
    sl_lcao: None
    sl_lrtddft: None
    use_elpa: False
    elpasolver: '2stage'
    buffer_size: None
    gpu: False
  symmetry: 
    point_group: False
    time_reversal: False
  xc: 
    name: 'LDA'

#                        
#                        
#                        
#                        
#                        
#              Br        
#                        
#        V               
#          Br            
#                        
#                        
#                        
#                        
#                        

atoms: [  # symbols, positions [Ang] and initial magnetic moments
  [  V, [   0.000000,    0.000000,    8.513573], [ 1.000,  0.000,  0.000]], # 0
  [ Br, [   1.920000,    1.108513,   10.027147], [ 0.000,  0.000,  0.000]], # 1
  [ Br, [  -0.000000,    2.217025,    7.000000], [ 0.000,  0.000,  0.000]]] # 2

cell: [  # Ang
#     x            y            z
  [   3.840000,    0.000000,    0.000000],
  [  -1.920000,    3.325538,    0.000000],
  [   0.000000,   -0.000000,   17.027147]]

periodic: [True      , True      , False     ]
lengths:  [  3.840000,   3.840000,  17.027147]  # Ang
angles:   [ 90.000000,  90.000000, 120.000000]

symmetry:
  number of symmetries: 1
  rotations: [
    [[ 1,  0,  0], [ 0,  1,  0], [ 0,  0,  1]]]

bz sampling:
  number of bz points: 144
  number of ibz points: 144
  monkhorst-pack size: [12, 12, 1]
  monkhorst-pack shift: [0.041666666666666664, 0.041666666666666664, 0.0]
  points and weights: [
    [[ -0.41666667,  -0.41666667,   0.00000000], 0.00694444],  # 0
    [[ -0.41666667,  -0.33333333,   0.00000000], 0.00694444],  # 1
    [[ -0.41666667,  -0.25000000,   0.00000000], 0.00694444],  # 2
    [[ -0.41666667,  -0.16666667,   0.00000000], 0.00694444],  # 3
    [[ -0.41666667,  -0.08333333,   0.00000000], 0.00694444],  # 4
    [[ -0.41666667,  -0.00000000,   0.00000000], 0.00694444],  # 5
    [[ -0.41666667,   0.08333333,   0.00000000], 0.00694444],  # 6
    [[ -0.41666667,   0.16666667,   0.00000000], 0.00694444],  # 7
    [[ -0.41666667,   0.25000000,   0.00000000], 0.00694444],  # 8
    [[ -0.41666667,   0.33333333,   0.00000000], 0.00694444],  # 9
    # ...
    [[  0.50000000,   0.50000000,   0.00000000], 0.00694444]]  # 143

plane wave coefficients: 7311
cutoff: 600.0 eV

spin-components: 4  # (non-collinear spins)
bands: 42
valence electrons: 27.0
spin-degeneracy: 1
dtype: complex128

memory:
    wave functions: 1_402_748_928  # bytes  (116_895_744 per core)

parallelization:
    kpt:    12
    domain: 1
    band:   1

density:
  components: 4
  grid points: [24 24 98]
  charge: 0.0  # |e|

potential:
  grid points: [24 24 98]

species:
  V:
    name: Vanadium
    id: 7939ce69e6bb5930668dfcf9bb1979c3
    Z: 23.0
    valence: 13
    core: 10
    charge: 0.0
    file: /zhome/86/d/1666/PAW/gpaw-setups-0.9.20000/V.LDA.gz
    compensation charges: {type: gauss,
                           rc: 0.37,
                           lmax: 2}
    cutoffs: {filter: 2.14,
              core: 0.96}
    valence states:
      #              energy  rcut
      - 3s(2.00)   -69.819   1.254
      - 4s(2.00)    -4.846   1.254
      - 3p(6.00)   -43.961   1.281
      - 4p(0.00)    -1.526   1.281
      - 3d(3.00)    -5.381   1.169
      -  d          21.830   1.169
  
    # Using partial waves for V as LCAO basis

  Br:
    name: Bromine
    id: 10a25bbcb3273ec7d8d7f6fc01d2618d
    Z: 35.0
    valence: 7
    core: 28
    charge: 0.0
    file: /zhome/86/d/1666/PAW/gpaw-setups-0.9.20000/Br.LDA.gz
    compensation charges: {type: gauss,
                           rc: 0.35,
                           lmax: 2}
    cutoffs: {filter: 1.98,
              core: 2.38}
    valence states:
      #              energy  rcut
      - 4s(2.00)   -20.306   1.111
      - 4p(5.00)    -8.003   1.111
      -  s           6.906   1.111
      -  p          19.208   1.111
      -  d           0.000   1.111
  
    # Using partial waves for Br as LCAO basis

Reference energy: -167392.690611  # eV

eigensolver:
  name: 'Davidson'
  niter: 2
  converge_bands: 'occupied'
Density mixing:
  Method: sum
  Backend: pulay
  Linear mixing parameter: 0.05
  old densities: 5
  Damping of long wavelength oscillations: 100
occupation numbers:
  Fermi-Dirac:
    width: 0.1000  # eV
  

poisson solver:
  ecut: 4800.0  # eV

xc functional:
  name: None

convergence criteria:
- Maximum [total energy] change in last 3 cyles: 0.0005 eV / valence electron
- Maximum integral of absolute [dens]ity change: 0.0001 electrons / valence electron
- Maximum integral of absolute [eigenst]ate change: 4e-08 eV^2 / valence electron
maximum number of iterations: 333

#      iter     time        total  log10-change:
#                          energy   eigst   dens
# iter:   1 14:01:37   -14.778767                  +1.0,+0.0,+0.0
# iter:   2 14:02:00   -15.164116   -0.20  -1.42   +1.5,-0.0,+0.0
# iter:   3 14:02:22   -15.220349   -0.99  -1.46   +1.8,-0.0,-0.0
# iter:   4 14:02:44   -15.344995   -1.48  -1.56   +2.0,-0.0,-0.0
# iter:   5 14:03:07   -15.567523   -2.01  -1.68   +2.6,-0.0,-0.0
# iter:   6 14:03:29   -15.571217   -2.29  -2.07   +2.7,-0.0,-0.0
# iter:   7 14:03:51   -15.571893c  -2.82  -2.25   +2.7,-0.0,+0.0
# iter:   8 14:04:13   -15.570049c  -3.33  -2.61   +2.7,-0.0,+0.0
# iter:   9 14:04:36   -15.573076c  -3.55  -2.73   +2.8,-0.0,+0.0
# iter:  10 14:04:58   -15.572446c  -3.70  -2.73   +2.8,-0.0,-0.0
# iter:  11 14:05:20   -15.572448c  -4.44  -3.60   +2.8,-0.0,+0.0
# iter:  12 14:05:42   -15.572497c  -4.72  -3.57   +2.8,-0.0,+0.0
# iter:  13 14:06:05   -15.572508c  -5.06  -3.52   +2.8,-0.0,+0.0
# iter:  14 14:06:28   -15.572527c  -5.32  -3.69   +2.8,-0.0,+0.0
# iter:  15 14:06:50   -15.572548c  -5.50  -3.74   +2.8,-0.0,+0.0
# iter:  16 14:07:12   -15.572538c  -5.34  -3.82   +2.8,-0.0,+0.0
# iter:  17 14:07:34   -15.572530c  -5.86  -3.73   +2.8,-0.0,+0.0
# iter:  18 14:07:56   -15.572532c  -6.15  -4.17c  +2.8,-0.0,+0.0
# iter:  19 14:08:18   -15.572532c  -6.53  -4.35c  +2.8,-0.0,+0.0
# iter:  20 14:08:41   -15.572531c  -6.73  -4.39c  +2.8,-0.0,+0.0
# iter:  21 14:09:03   -15.572530c  -7.05  -4.49c  +2.8,-0.0,+0.0
# iter:  22 14:09:25   -15.572530c  -7.20  -4.59c  +2.8,-0.0,+0.0
# iter:  23 14:09:47   -15.572530c  -7.39  -4.61c  +2.8,-0.0,+0.0
# iter:  24 14:10:09   -15.572530c  -7.78c -5.18c  +2.8,-0.0,+0.0
scf_steps: 24
energies:  # eV
  coulomb:          -3.224443
  zero:              0.047033
  xc:              -15.796496
  external:          0.000000
  kinetic:           3.405859
  spinorbit:         0.000000
  entropy:          -0.008966
  total:           -15.577013
  extrapolated:    -15.572530

dipole moment: [-4.839387, -8.381967, -10.231401]  # |e|*Ang

total magnetic moment: [2.804506, -0.001605, 0.000000]

local magnetic moments: [
  [ 2.574328, -0.000000,  0.000000],  # V  0
  [-0.007312,  0.018431,  0.000000],  # Br 1
  [-0.007176,  0.018484,  0.000000]]  # Br 2


Fermi level: -1.146 eV

kpt = [-0.417, -0.417, 0.000], weight = 0.007:
  Band      eig [eV]   occ [0-1]
     0       -65.906       1.000
   ...
    19        -5.490       1.000
    20        -5.412       1.000
    21        -5.375       1.000
    22        -5.306       1.000
    23        -5.257       1.000
    24        -2.148       1.000
    25        -1.708       0.996
    26        -1.675       0.995
    27        -0.487       0.001
    28        -0.432       0.001
    29         0.121       0.000
    30         0.604       0.000
    31         0.615       0.000
    32         1.027       0.000
    33         1.065       0.000
    34         2.483       0.000
   ...
    41         5.690       0.000

kpt = [-0.417, -0.333, 0.000], weight = 0.007:
  Band      eig [eV]   occ [0-1]
     0       -65.906       1.000
   ...
    19        -5.503       1.000
    20        -5.476       1.000
    21        -5.349       1.000
    22        -5.273       1.000
    23        -5.235       1.000
    24        -2.083       1.000
    25        -1.790       0.998
    26        -1.677       0.995
    27        -0.563       0.003
    28        -0.412       0.001
    29         0.262       0.000
    30         0.485       0.000
    31         0.618       0.000
    32         0.989       0.000
    33         1.057       0.000
    34         2.555       0.000
   ...
    41         5.624       0.000

kpt = [-0.417, -0.250, 0.000], weight = 0.007:
  Band      eig [eV]   occ [0-1]
     0       -65.906       1.000
   ...
    19        -5.604       1.000
    20        -5.484       1.000
    21        -5.445       1.000
    22        -5.190       1.000
    23        -5.126       1.000
    24        -1.973       1.000
    25        -1.885       0.999
    26        -1.666       0.994
    27        -0.577       0.003
    28        -0.465       0.001
    29         0.271       0.000
    30         0.393       0.000
    31         0.622       0.000
    32         0.928       0.000
    33         1.032       0.000
    34         2.851       0.000
   ...
    41         5.126       0.000
(only showing first 3 out of 144 k-points)

Gap: 0.860 eV
Transition (v -> c):
  (s=0, k=137, n=26, [0.50, -0.00, 0.00]) -> (s=0, k=76, n=27, [0.08, -0.08, 0.00])
# Writing to gsq-22.gpw (mode='')

---

timing:  # [seconds]
  Total: 550.019  # ━━━━━━━━━━━━━━━━━━━━━━━━━━━━━━━━━━━━━━━━━━━━━━━━━━━━━━━━━
  Init:   15.213  # ━╸
  SCF:   532.969  # ━━━━━━━━━━━━━━━━━━━━━━━━━━━━━━━━━━━━━━━━━━━━━━━━━━━━━━━

Max RSS: 942.672  # MiB
