#  __  _  _
# | _ |_)|_||  |
# |__||  | ||/\| - 24.1.0

User:   s194113@n-62-29-20
Date:   Tue Apr 23 15:02:38 2024
Arch:   x86_64
Pid:    1040
CWD:    /zhome/87/8/147075/10302/10302_NM/VBr2/V_con
Python: 3.8.5
gpaw:   /zhome/87/8/147075/venv-name/gpaw/gpaw (10808453a8)
_gpaw:  /zhome/87/8/147075/venv-name/gpaw/
        _gpaw.cpython-38-x86_64-linux-gnu.so (10808453a8)
ase:    /zhome/87/8/147075/venv-name/ase/ase (version 3.23.0b1-c36115a2db)
numpy:  /zhome/87/8/147075/venv-name/lib/python3.8/site-packages/numpy (version 1.24.4)
scipy:  /zhome/87/8/147075/venv-name/lib/python3.8/site-packages/scipy (version 1.10.1)
libxc:  4.3.4
units:  Angstrom and eV
cores: 12
OpenMP: False
OMP_NUM_THREADS: 1

---
input parameters:
  kpts: 
    density: 6.0
    gamma: True
  magmoms: [[1, 0, 0], [0, 0, 0], [0, 0, 0]]
  mixer: 
    backend: 'pulay'
    beta: 0.05
    method: 'sum'
    nmaxold: 5
    weight: 100
  mode: 
    name: 'pw'
    ecut: 600
    qspiral: array([0.02380952, 0.02380952, 0.        ])
  parallel: 
    kpt: None
    domain: 1
    band: 1
    order: 'kdb'
    stridebands: False
    augment_grids: False
    sl_auto: False
    sl_default: None
    sl_diagonalize: None
    sl_inverse_cholesky: None
    sl_lcao: None
    sl_lrtddft: None
    use_elpa: False
    elpasolver: '2stage'
    buffer_size: None
    gpu: False
  symmetry: 
    point_group: False
    time_reversal: False
  xc: 
    name: 'LDA'

#                        
#                        
#                        
#                        
#                        
#              Br        
#                        
#        V               
#          Br            
#                        
#                        
#                        
#                        
#                        

atoms: [  # symbols, positions [Ang] and initial magnetic moments
  [  V, [   0.000000,    0.000000,    8.513573], [ 1.000,  0.000,  0.000]], # 0
  [ Br, [   1.920000,    1.108513,   10.027147], [ 0.000,  0.000,  0.000]], # 1
  [ Br, [  -0.000000,    2.217025,    7.000000], [ 0.000,  0.000,  0.000]]] # 2

cell: [  # Ang
#     x            y            z
  [   3.840000,    0.000000,    0.000000],
  [  -1.920000,    3.325538,    0.000000],
  [   0.000000,   -0.000000,   17.027147]]

periodic: [True      , True      , False     ]
lengths:  [  3.840000,   3.840000,  17.027147]  # Ang
angles:   [ 90.000000,  90.000000, 120.000000]

symmetry:
  number of symmetries: 1
  rotations: [
    [[ 1,  0,  0], [ 0,  1,  0], [ 0,  0,  1]]]

bz sampling:
  number of bz points: 144
  number of ibz points: 144
  monkhorst-pack size: [12, 12, 1]
  monkhorst-pack shift: [0.041666666666666664, 0.041666666666666664, 0.0]
  points and weights: [
    [[ -0.41666667,  -0.41666667,   0.00000000], 0.00694444],  # 0
    [[ -0.41666667,  -0.33333333,   0.00000000], 0.00694444],  # 1
    [[ -0.41666667,  -0.25000000,   0.00000000], 0.00694444],  # 2
    [[ -0.41666667,  -0.16666667,   0.00000000], 0.00694444],  # 3
    [[ -0.41666667,  -0.08333333,   0.00000000], 0.00694444],  # 4
    [[ -0.41666667,  -0.00000000,   0.00000000], 0.00694444],  # 5
    [[ -0.41666667,   0.08333333,   0.00000000], 0.00694444],  # 6
    [[ -0.41666667,   0.16666667,   0.00000000], 0.00694444],  # 7
    [[ -0.41666667,   0.25000000,   0.00000000], 0.00694444],  # 8
    [[ -0.41666667,   0.33333333,   0.00000000], 0.00694444],  # 9
    # ...
    [[  0.50000000,   0.50000000,   0.00000000], 0.00694444]]  # 143

plane wave coefficients: 7311
cutoff: 600.0 eV

spin-components: 4  # (non-collinear spins)
bands: 42
valence electrons: 27.0
spin-degeneracy: 1
dtype: complex128

memory:
    wave functions: 1_402_748_928  # bytes  (116_895_744 per core)

parallelization:
    kpt:    12
    domain: 1
    band:   1

density:
  components: 4
  grid points: [24 24 98]
  charge: 0.0  # |e|

potential:
  grid points: [24 24 98]

species:
  V:
    name: Vanadium
    id: 7939ce69e6bb5930668dfcf9bb1979c3
    Z: 23.0
    valence: 13
    core: 10
    charge: 0.0
    file: /zhome/86/d/1666/PAW/gpaw-setups-0.9.20000/V.LDA.gz
    compensation charges: {type: gauss,
                           rc: 0.37,
                           lmax: 2}
    cutoffs: {filter: 2.14,
              core: 0.96}
    valence states:
      #              energy  rcut
      - 3s(2.00)   -69.819   1.254
      - 4s(2.00)    -4.846   1.254
      - 3p(6.00)   -43.961   1.281
      - 4p(0.00)    -1.526   1.281
      - 3d(3.00)    -5.381   1.169
      -  d          21.830   1.169
  
    # Using partial waves for V as LCAO basis

  Br:
    name: Bromine
    id: 10a25bbcb3273ec7d8d7f6fc01d2618d
    Z: 35.0
    valence: 7
    core: 28
    charge: 0.0
    file: /zhome/86/d/1666/PAW/gpaw-setups-0.9.20000/Br.LDA.gz
    compensation charges: {type: gauss,
                           rc: 0.35,
                           lmax: 2}
    cutoffs: {filter: 1.98,
              core: 2.38}
    valence states:
      #              energy  rcut
      - 4s(2.00)   -20.306   1.111
      - 4p(5.00)    -8.003   1.111
      -  s           6.906   1.111
      -  p          19.208   1.111
      -  d           0.000   1.111
  
    # Using partial waves for Br as LCAO basis

Reference energy: -167392.690611  # eV

eigensolver:
  name: 'Davidson'
  niter: 2
  converge_bands: 'occupied'
Density mixing:
  Method: sum
  Backend: pulay
  Linear mixing parameter: 0.05
  old densities: 5
  Damping of long wavelength oscillations: 100
occupation numbers:
  Fermi-Dirac:
    width: 0.1000  # eV
  

poisson solver:
  ecut: 4800.0  # eV

xc functional:
  name: None

convergence criteria:
- Maximum [total energy] change in last 3 cyles: 0.0005 eV / valence electron
- Maximum integral of absolute [dens]ity change: 0.0001 electrons / valence electron
- Maximum integral of absolute [eigenst]ate change: 4e-08 eV^2 / valence electron
maximum number of iterations: 333

#      iter     time        total  log10-change:
#                          energy   eigst   dens
# iter:   1 15:03:14   -14.970790                  +1.0,+0.0,+0.0
# iter:   2 15:03:37   -15.112351   -0.65  -1.42   +1.5,+0.0,+0.0
# iter:   3 15:03:59   -15.144368   -1.20  -1.46   +1.9,-0.0,-0.0
# iter:   4 15:04:22   -15.279560   -1.56  -1.56   +2.2,-0.0,-0.0
# iter:   5 15:04:44   -15.528476   -2.02  -1.68   +2.8,-0.0,-0.0
# iter:   6 15:05:07   -15.546320   -2.15  -2.09   +2.9,-0.0,+0.0
# iter:   7 15:05:29   -15.535322   -2.62  -2.30   +2.9,-0.0,-0.0
# iter:   8 15:05:52   -15.534814c  -3.45  -2.65   +2.9,-0.0,-0.0
# iter:   9 15:06:14   -15.539029c  -3.14  -2.75   +3.0,-0.0,-0.0
# iter:  10 15:06:37   -15.537513c  -3.73  -2.64   +3.0,-0.0,-0.0
# iter:  11 15:07:00   -15.537503c  -4.31  -3.55   +3.0,-0.0,-0.0
# iter:  12 15:07:22   -15.537533c  -4.72  -3.62   +3.0,-0.0,-0.0
# iter:  13 15:07:45   -15.537545c  -4.87  -3.71   +3.0,-0.0,-0.0
# iter:  14 15:08:07   -15.537535c  -5.23  -3.92   +3.0,-0.0,-0.0
# iter:  15 15:08:29   -15.537532c  -5.52  -4.07c  +3.0,-0.0,-0.0
# iter:  16 15:08:51   -15.537546c  -5.72  -4.13c  +3.0,-0.0,-0.0
# iter:  17 15:09:14   -15.537540c  -6.04  -4.30c  +3.0,-0.0,+0.0
# iter:  18 15:09:36   -15.537540c  -6.33  -4.39c  +3.0,-0.0,+0.0
# iter:  19 15:09:58   -15.537539c  -6.62  -4.41c  +3.0,-0.0,+0.0
# iter:  20 15:10:20   -15.537540c  -6.83  -4.49c  +3.0,-0.0,-0.0
# iter:  21 15:10:42   -15.537545c  -6.89  -4.63c  +3.0,-0.0,+0.0
# iter:  22 15:11:04   -15.537544c  -7.32  -4.76c  +3.0,-0.0,+0.0
# iter:  23 15:11:26   -15.537544c  -7.70c -4.79c  +3.0,-0.0,-0.0
scf_steps: 23
energies:  # eV
  coulomb:          -3.897264
  zero:              0.044995
  xc:              -16.022065
  external:          0.000000
  kinetic:           4.342855
  spinorbit:         0.000000
  entropy:          -0.012131
  total:           -15.543610
  extrapolated:    -15.537544

dipole moment: [-5.128871, -8.882402, -11.544609]  # |e|*Ang

total magnetic moment: [2.994523, -0.000366, -0.000000]

local magnetic moments: [
  [ 2.641544, -0.000000, -0.000000],  # V  0
  [-0.029156,  0.004382,  0.000000],  # Br 1
  [-0.029153,  0.004406,  0.000000]]  # Br 2


Fermi level: -1.077 eV

kpt = [-0.417, -0.417, 0.000], weight = 0.007:
  Band      eig [eV]   occ [0-1]
     0       -65.830       1.000
   ...
    19        -5.515       1.000
    20        -5.471       1.000
    21        -5.460       1.000
    22        -5.354       1.000
    23        -5.242       1.000
    24        -2.111       1.000
    25        -1.589       0.994
    26        -1.583       0.994
    27        -0.503       0.003
    28        -0.261       0.000
    29        -0.075       0.000
    30         0.705       0.000
    31         0.793       0.000
    32         1.069       0.000
    33         1.275       0.000
    34         2.772       0.000
   ...
    41         5.348       0.000

kpt = [-0.417, -0.333, 0.000], weight = 0.007:
  Band      eig [eV]   occ [0-1]
     0       -65.830       1.000
   ...
    19        -5.674       1.000
    20        -5.563       1.000
    21        -5.406       1.000
    22        -5.378       1.000
    23        -5.209       1.000
    24        -1.936       1.000
    25        -1.649       0.997
    26        -1.582       0.994
    27        -0.546       0.005
    28        -0.330       0.001
    29         0.257       0.000
    30         0.598       0.000
    31         0.724       0.000
    32         1.004       0.000
    33         1.180       0.000
    34         3.181       0.000
   ...
    41         5.679       0.000

kpt = [-0.417, -0.250, 0.000], weight = 0.007:
  Band      eig [eV]   occ [0-1]
     0       -65.830       1.000
   ...
    19        -5.681       1.000
    20        -5.566       1.000
    21        -5.411       1.000
    22        -5.373       1.000
    23        -5.206       1.000
    24        -1.933       1.000
    25        -1.650       0.997
    26        -1.582       0.994
    27        -0.549       0.005
    28        -0.329       0.001
    29         0.257       0.000
    30         0.597       0.000
    31         0.724       0.000
    32         1.003       0.000
    33         1.181       0.000
    34         3.195       0.000
   ...
    41         5.802       0.000
(only showing first 3 out of 144 k-points)

Gap: 0.806 eV
Transition (v -> c):
  (s=0, k=5, n=26, [-0.42, -0.00, 0.00]) -> (s=0, k=43, n=27, [-0.17, 0.17, 0.00])
# Writing to gsq-29.gpw (mode='')

---

timing:  # [seconds]
  Total: 528.915  # ━━━━━━━━━━━━━━━━━━━━━━━━━━━━━━━━━━━━━━━━━━━━━━━━━━━━━━━━━
  Init:   15.129  # ━╸
  SCF:   513.024  # ━━━━━━━━━━━━━━━━━━━━━━━━━━━━━━━━━━━━━━━━━━━━━━━━━━━━━━━╸

Max RSS: 942.672  # MiB
