#  __  _  _
# | _ |_)|_||  |
# |__||  | ||/\| - 24.1.0

User:   s194113@n-62-28-20
Date:   Fri Apr 26 03:34:21 2024
Arch:   x86_64
Pid:    31927
CWD:    /work3/s194113/10302/10302_NM/VBr2
Python: 3.8.5
gpaw:   /zhome/87/8/147075/venv-name/gpaw/gpaw (10808453a8)
_gpaw:  /zhome/87/8/147075/venv-name/gpaw/
        _gpaw.cpython-38-x86_64-linux-gnu.so (10808453a8)
ase:    /zhome/87/8/147075/venv-name/ase/ase (version 3.23.0b1-c36115a2db)
numpy:  /zhome/87/8/147075/venv-name/lib/python3.8/site-packages/numpy (version 1.24.4)
scipy:  /zhome/87/8/147075/venv-name/lib/python3.8/site-packages/scipy (version 1.10.1)
libxc:  4.3.4
units:  Angstrom and eV
cores: 12
OpenMP: False
OMP_NUM_THREADS: 1

---
input parameters:
  kpts: 
    density: 6.0
    gamma: True
  magmoms: [[2.64162512, 0, 0], [-0.02514574, 0, 0], [-0.02514574, 0, 0]]
  mixer: 
    backend: 'pulay'
    beta: 0.05
    method: 'sum'
    nmaxold: 5
    weight: 100
  mode: 
    name: 'pw'
    ecut: 600
    qspiral: array([0.34126984, 0.31746032, 0.        ])
  parallel: 
    kpt: None
    domain: 1
    band: 1
    order: 'kdb'
    stridebands: False
    augment_grids: False
    sl_auto: False
    sl_default: None
    sl_diagonalize: None
    sl_inverse_cholesky: None
    sl_lcao: None
    sl_lrtddft: None
    use_elpa: False
    elpasolver: '2stage'
    buffer_size: None
    gpu: False
  symmetry: 
    point_group: False
    time_reversal: False
  xc: 
    name: 'LDA'

#                        
#                        
#                        
#                        
#              Br        
#                        
#                        
#        V Br            
#                        
#                        
#                        
#                        
#                        

atoms: [  # symbols, positions [Ang] and initial magnetic moments
  [  V, [   0.000000,    0.000000,    7.448555], [ 2.642,  0.000,  0.000]], # 0
  [ Br, [   1.920224,    1.108642,    8.897111], [-0.025,  0.000,  0.000]], # 1
  [ Br, [   0.000000,    2.217284,    6.000000], [-0.025,  0.000,  0.000]]] # 2

cell: [  # Ang
#     x            y            z
  [   3.840448,    0.000000,    0.000000],
  [  -1.920224,    3.325925,    0.000000],
  [   0.000000,    0.000000,   14.897111]]

periodic: [True      , True      , False     ]
lengths:  [  3.840448,   3.840448,  14.897111]  # Ang
angles:   [ 90.000000,  90.000000, 120.000000]

symmetry:
  number of symmetries: 1
  rotations: [
    [[ 1,  0,  0], [ 0,  1,  0], [ 0,  0,  1]]]

bz sampling:
  number of bz points: 144
  number of ibz points: 144
  monkhorst-pack size: [12, 12, 1]
  monkhorst-pack shift: [0.041666666666666664, 0.041666666666666664, 0.0]
  points and weights: [
    [[ -0.41666667,  -0.41666667,   0.00000000], 0.00694444],  # 0
    [[ -0.41666667,  -0.33333333,   0.00000000], 0.00694444],  # 1
    [[ -0.41666667,  -0.25000000,   0.00000000], 0.00694444],  # 2
    [[ -0.41666667,  -0.16666667,   0.00000000], 0.00694444],  # 3
    [[ -0.41666667,  -0.08333333,   0.00000000], 0.00694444],  # 4
    [[ -0.41666667,  -0.00000000,   0.00000000], 0.00694444],  # 5
    [[ -0.41666667,   0.08333333,   0.00000000], 0.00694444],  # 6
    [[ -0.41666667,   0.16666667,   0.00000000], 0.00694444],  # 7
    [[ -0.41666667,   0.25000000,   0.00000000], 0.00694444],  # 8
    [[ -0.41666667,   0.33333333,   0.00000000], 0.00694444],  # 9
    # ...
    [[  0.50000000,   0.50000000,   0.00000000], 0.00694444]]  # 143

plane wave coefficients: 6385
cutoff: 600.0 eV

spin-components: 4  # (non-collinear spins)
bands: 42
valence electrons: 27.0
spin-degeneracy: 1
dtype: complex128

memory:
    wave functions: 1_232_437_248  # bytes  (102_703_104 per core)

parallelization:
    kpt:    12
    domain: 1
    band:   1

density:
  components: 4
  grid points: [24 24 90]
  charge: 0.0  # |e|

potential:
  grid points: [24 24 90]

species:
  V:
    name: Vanadium
    id: 7939ce69e6bb5930668dfcf9bb1979c3
    Z: 23.0
    valence: 13
    core: 10
    charge: 0.0
    file: /zhome/86/d/1666/PAW/gpaw-setups-0.9.20000/V.LDA.gz
    compensation charges: {type: gauss,
                           rc: 0.37,
                           lmax: 2}
    cutoffs: {filter: 2.14,
              core: 0.96}
    valence states:
      #              energy  rcut
      - 3s(2.00)   -69.819   1.254
      - 4s(2.00)    -4.846   1.254
      - 3p(6.00)   -43.961   1.281
      - 4p(0.00)    -1.526   1.281
      - 3d(3.00)    -5.381   1.169
      -  d          21.830   1.169
  
    # Using partial waves for V as LCAO basis

  Br:
    name: Bromine
    id: 10a25bbcb3273ec7d8d7f6fc01d2618d
    Z: 35.0
    valence: 7
    core: 28
    charge: 0.0
    file: /zhome/86/d/1666/PAW/gpaw-setups-0.9.20000/Br.LDA.gz
    compensation charges: {type: gauss,
                           rc: 0.35,
                           lmax: 2}
    cutoffs: {filter: 1.98,
              core: 2.38}
    valence states:
      #              energy  rcut
      - 4s(2.00)   -20.306   1.111
      - 4p(5.00)    -8.003   1.111
      -  s           6.906   1.111
      -  p          19.208   1.111
      -  d           0.000   1.111
  
    # Using partial waves for Br as LCAO basis

Reference energy: -167392.690611  # eV

eigensolver:
  name: 'Davidson'
  niter: 2
  converge_bands: 'occupied'
Density mixing:
  Method: sum
  Backend: pulay
  Linear mixing parameter: 0.05
  old densities: 5
  Damping of long wavelength oscillations: 100
occupation numbers:
  Fermi-Dirac:
    width: 0.1000  # eV
  

poisson solver:
  ecut: 4800.0  # eV

xc functional:
  name: None

convergence criteria:
- Maximum [total energy] change in last 3 cyles: 0.0005 eV / valence electron
- Maximum integral of absolute [dens]ity change: 0.0001 electrons / valence electron
- Maximum integral of absolute [eigenst]ate change: 4e-08 eV^2 / valence electron
maximum number of iterations: 333

#      iter     time        total  log10-change:
#                          energy   eigst   dens
# iter:   1 03:34:54   -14.881435                  +2.6,+0.0,+0.0
# iter:   2 03:35:15   -15.640965   +0.21  -1.41   +2.5,+0.0,-0.0
# iter:   3 03:35:36   -15.627953   -0.66  -1.44   +2.5,+0.0,+0.0
# iter:   4 03:35:56   -15.644412   -1.22  -1.54   +2.6,+0.0,-0.0
# iter:   5 03:36:17   -15.720212   -1.43  -1.66   +2.6,+0.0,-0.0
# iter:   6 03:36:38   -15.681375   -2.24  -2.02   +2.6,-0.0,-0.0
# iter:   7 03:36:58   -15.677047   -2.39  -2.21   +2.6,-0.0,-0.0
# iter:   8 03:37:18   -15.674320c  -3.13  -2.41   +2.6,-0.0,-0.0
# iter:   9 03:37:39   -15.676070c  -3.16  -2.81   +2.6,-0.0,-0.0
# iter:  10 03:37:59   -15.674474c  -3.43  -2.66   +2.6,-0.0,-0.0
# iter:  11 03:38:19   -15.674429c  -4.12  -3.17   +2.6,-0.0,-0.0
# iter:  12 03:38:39   -15.674413c  -4.39  -3.42   +2.6,-0.0,-0.0
# iter:  13 03:39:00   -15.674386c  -4.60  -3.51   +2.6,-0.0,-0.0
# iter:  14 03:39:20   -15.674381c  -4.91  -3.69   +2.6,-0.0,-0.0
# iter:  15 03:39:40   -15.674382c  -5.22  -3.97   +2.6,-0.0,-0.0
# iter:  16 03:40:01   -15.674382c  -5.46  -4.00   +2.6,-0.0,-0.0
# iter:  17 03:40:21   -15.674382c  -5.71  -4.14c  +2.6,-0.0,-0.0
# iter:  18 03:40:41   -15.674380c  -5.97  -4.26c  +2.6,-0.0,-0.0
# iter:  19 03:41:01   -15.674377c  -6.18  -4.38c  +2.6,-0.0,-0.0
# iter:  20 03:41:22   -15.674377c  -6.41  -4.48c  +2.6,-0.0,-0.0
# iter:  21 03:41:42   -15.674377c  -6.56  -4.54c  +2.6,-0.0,-0.0
# iter:  22 03:42:02   -15.674377c  -6.81  -4.64c  +2.6,-0.0,-0.0
# iter:  23 03:42:23   -15.674377c  -7.05  -4.72c  +2.6,-0.0,-0.0
# iter:  24 03:42:43   -15.674378c  -7.26  -4.78c  +2.6,-0.0,-0.0
# iter:  25 03:43:03   -15.674378c  -7.52c -4.94c  +2.6,-0.0,-0.0
scf_steps: 25
energies:  # eV
  coulomb:          -5.335633
  zero:              0.040476
  xc:              -16.389837
  external:          0.000000
  kinetic:           6.013972
  spinorbit:         0.000000
  entropy:          -0.006711
  total:           -15.677734
  extrapolated:    -15.674378

dipole moment: [-4.545396, -7.905636, -7.507888]  # |e|*Ang

total magnetic moment: [2.579935, -0.000033, -0.000000]

local magnetic moments: [
  [ 2.525606, -0.000002, -0.000000],  # V  0
  [ 0.000799,  0.000061, -0.000000],  # Br 1
  [-0.000379,  0.000702, -0.000000]]  # Br 2


Fermi level: -0.650 eV

kpt = [-0.417, -0.417, 0.000], weight = 0.007:
  Band      eig [eV]   occ [0-1]
     0       -65.401       1.000
   ...
    19        -5.197       1.000
    20        -5.131       1.000
    21        -4.971       1.000
    22        -4.882       1.000
    23        -4.659       1.000
    24        -1.446       1.000
    25        -1.314       0.999
    26        -1.221       0.997
    27        -0.045       0.002
    28         0.078       0.001
    29         0.843       0.000
    30         0.857       0.000
    31         0.962       0.000
    32         1.470       0.000
    33         1.513       0.000
    34         3.616       0.000
   ...
    41         6.064       0.000

kpt = [-0.417, -0.333, 0.000], weight = 0.007:
  Band      eig [eV]   occ [0-1]
     0       -65.401       1.000
   ...
    19        -5.135       1.000
    20        -5.024       1.000
    21        -4.913       1.000
    22        -4.787       1.000
    23        -4.466       1.000
    24        -1.534       1.000
    25        -1.362       0.999
    26        -1.246       0.997
    27        -0.071       0.003
    28         0.091       0.001
    29         0.728       0.000
    30         0.901       0.000
    31         0.946       0.000
    32         1.442       0.000
    33         1.522       0.000
    34         3.254       0.000
   ...
    41         5.575       0.000

kpt = [-0.417, -0.250, 0.000], weight = 0.007:
  Band      eig [eV]   occ [0-1]
     0       -65.401       1.000
   ...
    19        -5.085       1.000
    20        -4.858       1.000
    21        -4.670       1.000
    22        -4.656       1.000
    23        -4.308       1.000
    24        -1.600       1.000
    25        -1.446       1.000
    26        -1.212       0.996
    27        -0.062       0.003
    28         0.068       0.001
    29         0.614       0.000
    30         0.836       0.000
    31         1.009       0.000
    32         1.394       0.000
    33         1.482       0.000
    34         3.092       0.000
   ...
    41         5.296       0.000
(only showing first 3 out of 144 k-points)

Gap: 0.902 eV
Transition (v -> c):
  (s=0, k=137, n=26, [0.50, -0.00, 0.00]) -> (s=0, k=61, n=27, [-0.00, -0.33, 0.00])
# Writing to Band/gsq-56.gpw (mode='')

---

timing:  # [seconds]
  Total: 1077.923  # ━━━━━━━━━━━━━━━━━━━━━━━━━━━━━━━━━━━━━━━━━━━━━━━━━━━━━━━━
  Init:    14.485  # ━
  SCF:    508.388  # ━━━━━━━━━━━━━━━━━━━━━━━━━━╸

Max RSS: 1348.312  # MiB
