#  __  _  _
# | _ |_)|_||  |
# |__||  | ||/\| - 24.1.0

User:   s194113@n-62-28-20
Date:   Fri Apr 26 00:39:45 2024
Arch:   x86_64
Pid:    31927
CWD:    /work3/s194113/10302/10302_NM/VBr2
Python: 3.8.5
gpaw:   /zhome/87/8/147075/venv-name/gpaw/gpaw (10808453a8)
_gpaw:  /zhome/87/8/147075/venv-name/gpaw/
        _gpaw.cpython-38-x86_64-linux-gnu.so (10808453a8)
ase:    /zhome/87/8/147075/venv-name/ase/ase (version 3.23.0b1-c36115a2db)
numpy:  /zhome/87/8/147075/venv-name/lib/python3.8/site-packages/numpy (version 1.24.4)
scipy:  /zhome/87/8/147075/venv-name/lib/python3.8/site-packages/scipy (version 1.10.1)
libxc:  4.3.4
units:  Angstrom and eV
cores: 12
OpenMP: False
OMP_NUM_THREADS: 1

---
input parameters:
  kpts: 
    density: 6.0
    gamma: True
  magmoms: [[2.64162512, 0, 0], [-0.02514574, 0, 0], [-0.02514574, 0, 0]]
  mixer: 
    backend: 'pulay'
    beta: 0.05
    method: 'sum'
    nmaxold: 5
    weight: 100
  mode: 
    name: 'pw'
    ecut: 600
    qspiral: array([0.5, 0. , 0. ])
  parallel: 
    kpt: None
    domain: 1
    band: 1
    order: 'kdb'
    stridebands: False
    augment_grids: False
    sl_auto: False
    sl_default: None
    sl_diagonalize: None
    sl_inverse_cholesky: None
    sl_lcao: None
    sl_lrtddft: None
    use_elpa: False
    elpasolver: '2stage'
    buffer_size: None
    gpu: False
  symmetry: 
    point_group: False
    time_reversal: False
  xc: 
    name: 'LDA'

#                        
#                        
#                        
#                        
#              Br        
#                        
#                        
#        V Br            
#                        
#                        
#                        
#                        
#                        

atoms: [  # symbols, positions [Ang] and initial magnetic moments
  [  V, [   0.000000,    0.000000,    7.448555], [ 2.642,  0.000,  0.000]], # 0
  [ Br, [   1.920224,    1.108642,    8.897111], [-0.025,  0.000,  0.000]], # 1
  [ Br, [   0.000000,    2.217284,    6.000000], [-0.025,  0.000,  0.000]]] # 2

cell: [  # Ang
#     x            y            z
  [   3.840448,    0.000000,    0.000000],
  [  -1.920224,    3.325925,    0.000000],
  [   0.000000,    0.000000,   14.897111]]

periodic: [True      , True      , False     ]
lengths:  [  3.840448,   3.840448,  14.897111]  # Ang
angles:   [ 90.000000,  90.000000, 120.000000]

symmetry:
  number of symmetries: 1
  rotations: [
    [[ 1,  0,  0], [ 0,  1,  0], [ 0,  0,  1]]]

bz sampling:
  number of bz points: 144
  number of ibz points: 144
  monkhorst-pack size: [12, 12, 1]
  monkhorst-pack shift: [0.041666666666666664, 0.041666666666666664, 0.0]
  points and weights: [
    [[ -0.41666667,  -0.41666667,   0.00000000], 0.00694444],  # 0
    [[ -0.41666667,  -0.33333333,   0.00000000], 0.00694444],  # 1
    [[ -0.41666667,  -0.25000000,   0.00000000], 0.00694444],  # 2
    [[ -0.41666667,  -0.16666667,   0.00000000], 0.00694444],  # 3
    [[ -0.41666667,  -0.08333333,   0.00000000], 0.00694444],  # 4
    [[ -0.41666667,  -0.00000000,   0.00000000], 0.00694444],  # 5
    [[ -0.41666667,   0.08333333,   0.00000000], 0.00694444],  # 6
    [[ -0.41666667,   0.16666667,   0.00000000], 0.00694444],  # 7
    [[ -0.41666667,   0.25000000,   0.00000000], 0.00694444],  # 8
    [[ -0.41666667,   0.33333333,   0.00000000], 0.00694444],  # 9
    # ...
    [[  0.50000000,   0.50000000,   0.00000000], 0.00694444]]  # 143

plane wave coefficients: 6385
cutoff: 600.0 eV

spin-components: 4  # (non-collinear spins)
bands: 42
valence electrons: 27.0
spin-degeneracy: 1
dtype: complex128

memory:
    wave functions: 1_232_437_248  # bytes  (102_703_104 per core)

parallelization:
    kpt:    12
    domain: 1
    band:   1

density:
  components: 4
  grid points: [24 24 90]
  charge: 0.0  # |e|

potential:
  grid points: [24 24 90]

species:
  V:
    name: Vanadium
    id: 7939ce69e6bb5930668dfcf9bb1979c3
    Z: 23.0
    valence: 13
    core: 10
    charge: 0.0
    file: /zhome/86/d/1666/PAW/gpaw-setups-0.9.20000/V.LDA.gz
    compensation charges: {type: gauss,
                           rc: 0.37,
                           lmax: 2}
    cutoffs: {filter: 2.14,
              core: 0.96}
    valence states:
      #              energy  rcut
      - 3s(2.00)   -69.819   1.254
      - 4s(2.00)    -4.846   1.254
      - 3p(6.00)   -43.961   1.281
      - 4p(0.00)    -1.526   1.281
      - 3d(3.00)    -5.381   1.169
      -  d          21.830   1.169
  
    # Using partial waves for V as LCAO basis

  Br:
    name: Bromine
    id: 10a25bbcb3273ec7d8d7f6fc01d2618d
    Z: 35.0
    valence: 7
    core: 28
    charge: 0.0
    file: /zhome/86/d/1666/PAW/gpaw-setups-0.9.20000/Br.LDA.gz
    compensation charges: {type: gauss,
                           rc: 0.35,
                           lmax: 2}
    cutoffs: {filter: 1.98,
              core: 2.38}
    valence states:
      #              energy  rcut
      - 4s(2.00)   -20.306   1.111
      - 4p(5.00)    -8.003   1.111
      -  s           6.906   1.111
      -  p          19.208   1.111
      -  d           0.000   1.111
  
    # Using partial waves for Br as LCAO basis

Reference energy: -167392.690611  # eV

eigensolver:
  name: 'Davidson'
  niter: 2
  converge_bands: 'occupied'
Density mixing:
  Method: sum
  Backend: pulay
  Linear mixing parameter: 0.05
  old densities: 5
  Damping of long wavelength oscillations: 100
occupation numbers:
  Fermi-Dirac:
    width: 0.1000  # eV
  

poisson solver:
  ecut: 4800.0  # eV

xc functional:
  name: None

convergence criteria:
- Maximum [total energy] change in last 3 cyles: 0.0005 eV / valence electron
- Maximum integral of absolute [dens]ity change: 0.0001 electrons / valence electron
- Maximum integral of absolute [eigenst]ate change: 4e-08 eV^2 / valence electron
maximum number of iterations: 333

#      iter     time        total  log10-change:
#                          energy   eigst   dens
# iter:   1 00:40:18   -15.120538                  +2.6,+0.0,+0.0
# iter:   2 00:40:39   -15.667389   +0.09  -1.41   +2.6,+0.0,-0.0
# iter:   3 00:41:00   -15.619284   -0.77  -1.44   +2.6,+0.0,-0.0
# iter:   4 00:41:20   -15.638221   -1.29  -1.54   +2.6,+0.0,-0.0
# iter:   5 00:41:41   -15.696121   -1.59  -1.66   +2.7,+0.0,-0.0
# iter:   6 00:42:01   -15.673792   -2.34  -2.09   +2.7,-0.0,-0.0
# iter:   7 00:42:22   -15.670240   -2.41  -2.22   +2.7,-0.0,-0.0
# iter:   8 00:42:42   -15.667214c  -3.20  -2.47   +2.7,-0.0,-0.0
# iter:   9 00:43:03   -15.669219c  -3.23  -2.83   +2.7,-0.0,-0.0
# iter:  10 00:43:23   -15.667457c  -3.54  -2.61   +2.7,-0.0,-0.0
# iter:  11 00:43:44   -15.667257c  -4.08  -3.22   +2.7,-0.0,-0.0
# iter:  12 00:44:04   -15.667258c  -4.54  -3.64   +2.7,-0.0,-0.0
# iter:  13 00:44:25   -15.667271c  -4.82  -3.70   +2.7,-0.0,-0.0
# iter:  14 00:44:45   -15.667251c  -4.90  -3.79   +2.7,+0.0,-0.0
# iter:  15 00:45:06   -15.667248c  -5.31  -3.82   +2.7,+0.0,-0.0
# iter:  16 00:45:26   -15.667249c  -5.54  -3.92   +2.7,-0.0,-0.0
# iter:  17 00:45:46   -15.667247c  -5.79  -4.01c  +2.7,-0.0,-0.0
# iter:  18 00:46:07   -15.667247c  -6.07  -4.09c  +2.7,-0.0,-0.0
# iter:  19 00:46:27   -15.667248c  -6.27  -4.24c  +2.7,+0.0,-0.0
# iter:  20 00:46:47   -15.667252c  -6.46  -4.29c  +2.7,+0.0,-0.0
# iter:  21 00:47:08   -15.667255c  -6.62  -4.39c  +2.7,+0.0,-0.0
# iter:  22 00:47:28   -15.667255c  -6.76  -4.52c  +2.7,+0.0,-0.0
# iter:  23 00:47:48   -15.667255c  -7.11  -4.90c  +2.7,+0.0,-0.0
# iter:  24 00:48:09   -15.667255c  -7.33  -4.98c  +2.7,+0.0,-0.0
# iter:  25 00:48:29   -15.667255c  -7.63c -5.22c  +2.7,+0.0,-0.0
scf_steps: 25
energies:  # eV
  coulomb:          -5.489614
  zero:              0.040907
  xc:              -16.432864
  external:          0.000000
  kinetic:           6.218106
  spinorbit:         0.000000
  entropy:          -0.007579
  total:           -15.671044
  extrapolated:    -15.667255

dipole moment: [-4.414186, -8.275348, -8.076384]  # |e|*Ang

total magnetic moment: [2.657441, 0.000003, -0.000000]

local magnetic moments: [
  [ 2.537877,  0.000002, -0.000000],  # V  0
  [ 0.008045, -0.000001, -0.000000],  # Br 1
  [-0.008046, -0.000001, -0.000000]]  # Br 2


Fermi level: -0.665 eV

kpt = [-0.417, -0.417, 0.000], weight = 0.007:
  Band      eig [eV]   occ [0-1]
     0       -65.391       1.000
   ...
    19        -5.163       1.000
    20        -4.963       1.000
    21        -4.922       1.000
    22        -4.829       1.000
    23        -4.544       1.000
    24        -1.547       1.000
    25        -1.375       0.999
    26        -1.172       0.994
    27        -0.040       0.002
    28         0.135       0.000
    29         0.736       0.000
    30         0.777       0.000
    31         1.100       0.000
    32         1.451       0.000
    33         1.603       0.000
    34         3.303       0.000
   ...
    41         5.756       0.000

kpt = [-0.417, -0.333, 0.000], weight = 0.007:
  Band      eig [eV]   occ [0-1]
     0       -65.391       1.000
   ...
    19        -5.153       1.000
    20        -5.078       1.000
    21        -4.702       1.000
    22        -4.652       1.000
    23        -4.417       1.000
    24        -1.542       1.000
    25        -1.388       0.999
    26        -1.204       0.995
    27        -0.142       0.005
    28         0.171       0.000
    29         0.738       0.000
    30         0.835       0.000
    31         1.039       0.000
    32         1.307       0.000
    33         1.578       0.000
    34         3.212       0.000
   ...
    41         5.669       0.000

kpt = [-0.417, -0.250, 0.000], weight = 0.007:
  Band      eig [eV]   occ [0-1]
     0       -65.392       1.000
   ...
    19        -5.210       1.000
    20        -4.954       1.000
    21        -4.652       1.000
    22        -4.454       1.000
    23        -4.304       1.000
    24        -1.466       1.000
    25        -1.328       0.999
    26        -1.298       0.998
    27        -0.174       0.007
    28         0.092       0.001
    29         0.755       0.000
    30         0.809       0.000
    31         0.940       0.000
    32         1.197       0.000
    33         1.445       0.000
    34         3.523       0.000
   ...
    41         5.384       0.000
(only showing first 3 out of 144 k-points)

Gap: 0.840 eV
Transition (v -> c):
  (s=0, k=137, n=26, [0.50, -0.00, 0.00]) -> (s=0, k=62, n=27, [-0.00, -0.25, 0.00])
# Writing to Band/gsq-36.gpw (mode='')

---

timing:  # [seconds]
  Total: 524.876  # ━━━━━━━━━━━━━━━━━━━━━━━━━━━━━━━━━━━━━━━━━━━━━━━━━━━━━━━━━
  Init:   14.510  # ━╸
  SCF:   509.834  # ━━━━━━━━━━━━━━━━━━━━━━━━━━━━━━━━━━━━━━━━━━━━━━━━━━━━━━━╸

Max RSS: 892.309  # MiB
