#  __  _  _
# | _ |_)|_||  |
# |__||  | ||/\| - 24.1.0

User:   s194113@n-62-28-20
Date:   Fri Apr 26 05:00:43 2024
Arch:   x86_64
Pid:    31927
CWD:    /work3/s194113/10302/10302_NM/VBr2
Python: 3.8.5
gpaw:   /zhome/87/8/147075/venv-name/gpaw/gpaw (10808453a8)
_gpaw:  /zhome/87/8/147075/venv-name/gpaw/
        _gpaw.cpython-38-x86_64-linux-gnu.so (10808453a8)
ase:    /zhome/87/8/147075/venv-name/ase/ase (version 3.23.0b1-c36115a2db)
numpy:  /zhome/87/8/147075/venv-name/lib/python3.8/site-packages/numpy (version 1.24.4)
scipy:  /zhome/87/8/147075/venv-name/lib/python3.8/site-packages/scipy (version 1.10.1)
libxc:  4.3.4
units:  Angstrom and eV
cores: 12
OpenMP: False
OMP_NUM_THREADS: 1

---
input parameters:
  kpts: 
    density: 6.0
    gamma: True
  magmoms: [[2.64162512, 0, 0], [-0.02514574, 0, 0], [-0.02514574, 0, 0]]
  mixer: 
    backend: 'pulay'
    beta: 0.05
    method: 'sum'
    nmaxold: 5
    weight: 100
  mode: 
    name: 'pw'
    ecut: 600
    qspiral: array([0.26356589, 0.26356589, 0.        ])
  parallel: 
    kpt: None
    domain: 1
    band: 1
    order: 'kdb'
    stridebands: False
    augment_grids: False
    sl_auto: False
    sl_default: None
    sl_diagonalize: None
    sl_inverse_cholesky: None
    sl_lcao: None
    sl_lrtddft: None
    use_elpa: False
    elpasolver: '2stage'
    buffer_size: None
    gpu: False
  symmetry: 
    point_group: False
    time_reversal: False
  xc: 
    name: 'LDA'

#                        
#                        
#                        
#                        
#              Br        
#                        
#                        
#        V Br            
#                        
#                        
#                        
#                        
#                        

atoms: [  # symbols, positions [Ang] and initial magnetic moments
  [  V, [   0.000000,    0.000000,    7.448555], [ 2.642,  0.000,  0.000]], # 0
  [ Br, [   1.920224,    1.108642,    8.897111], [-0.025,  0.000,  0.000]], # 1
  [ Br, [   0.000000,    2.217284,    6.000000], [-0.025,  0.000,  0.000]]] # 2

cell: [  # Ang
#     x            y            z
  [   3.840448,    0.000000,    0.000000],
  [  -1.920224,    3.325925,    0.000000],
  [   0.000000,    0.000000,   14.897111]]

periodic: [True      , True      , False     ]
lengths:  [  3.840448,   3.840448,  14.897111]  # Ang
angles:   [ 90.000000,  90.000000, 120.000000]

symmetry:
  number of symmetries: 1
  rotations: [
    [[ 1,  0,  0], [ 0,  1,  0], [ 0,  0,  1]]]

bz sampling:
  number of bz points: 144
  number of ibz points: 144
  monkhorst-pack size: [12, 12, 1]
  monkhorst-pack shift: [0.041666666666666664, 0.041666666666666664, 0.0]
  points and weights: [
    [[ -0.41666667,  -0.41666667,   0.00000000], 0.00694444],  # 0
    [[ -0.41666667,  -0.33333333,   0.00000000], 0.00694444],  # 1
    [[ -0.41666667,  -0.25000000,   0.00000000], 0.00694444],  # 2
    [[ -0.41666667,  -0.16666667,   0.00000000], 0.00694444],  # 3
    [[ -0.41666667,  -0.08333333,   0.00000000], 0.00694444],  # 4
    [[ -0.41666667,  -0.00000000,   0.00000000], 0.00694444],  # 5
    [[ -0.41666667,   0.08333333,   0.00000000], 0.00694444],  # 6
    [[ -0.41666667,   0.16666667,   0.00000000], 0.00694444],  # 7
    [[ -0.41666667,   0.25000000,   0.00000000], 0.00694444],  # 8
    [[ -0.41666667,   0.33333333,   0.00000000], 0.00694444],  # 9
    # ...
    [[  0.50000000,   0.50000000,   0.00000000], 0.00694444]]  # 143

plane wave coefficients: 6385
cutoff: 600.0 eV

spin-components: 4  # (non-collinear spins)
bands: 42
valence electrons: 27.0
spin-degeneracy: 1
dtype: complex128

memory:
    wave functions: 1_232_437_248  # bytes  (102_703_104 per core)

parallelization:
    kpt:    12
    domain: 1
    band:   1

density:
  components: 4
  grid points: [24 24 90]
  charge: 0.0  # |e|

potential:
  grid points: [24 24 90]

species:
  V:
    name: Vanadium
    id: 7939ce69e6bb5930668dfcf9bb1979c3
    Z: 23.0
    valence: 13
    core: 10
    charge: 0.0
    file: /zhome/86/d/1666/PAW/gpaw-setups-0.9.20000/V.LDA.gz
    compensation charges: {type: gauss,
                           rc: 0.37,
                           lmax: 2}
    cutoffs: {filter: 2.14,
              core: 0.96}
    valence states:
      #              energy  rcut
      - 3s(2.00)   -69.819   1.254
      - 4s(2.00)    -4.846   1.254
      - 3p(6.00)   -43.961   1.281
      - 4p(0.00)    -1.526   1.281
      - 3d(3.00)    -5.381   1.169
      -  d          21.830   1.169
  
    # Using partial waves for V as LCAO basis

  Br:
    name: Bromine
    id: 10a25bbcb3273ec7d8d7f6fc01d2618d
    Z: 35.0
    valence: 7
    core: 28
    charge: 0.0
    file: /zhome/86/d/1666/PAW/gpaw-setups-0.9.20000/Br.LDA.gz
    compensation charges: {type: gauss,
                           rc: 0.35,
                           lmax: 2}
    cutoffs: {filter: 1.98,
              core: 2.38}
    valence states:
      #              energy  rcut
      - 4s(2.00)   -20.306   1.111
      - 4p(5.00)    -8.003   1.111
      -  s           6.906   1.111
      -  p          19.208   1.111
      -  d           0.000   1.111
  
    # Using partial waves for Br as LCAO basis

Reference energy: -167392.690611  # eV

eigensolver:
  name: 'Davidson'
  niter: 2
  converge_bands: 'occupied'
Density mixing:
  Method: sum
  Backend: pulay
  Linear mixing parameter: 0.05
  old densities: 5
  Damping of long wavelength oscillations: 100
occupation numbers:
  Fermi-Dirac:
    width: 0.1000  # eV
  

poisson solver:
  ecut: 4800.0  # eV

xc functional:
  name: None

convergence criteria:
- Maximum [total energy] change in last 3 cyles: 0.0005 eV / valence electron
- Maximum integral of absolute [dens]ity change: 0.0001 electrons / valence electron
- Maximum integral of absolute [eigenst]ate change: 4e-08 eV^2 / valence electron
maximum number of iterations: 333

#      iter     time        total  log10-change:
#                          energy   eigst   dens
# iter:   1 05:01:16   -15.238516                  +2.6,+0.0,+0.0
# iter:   2 05:01:37   -15.688092   +0.03  -1.41   +2.6,+0.0,+0.0
# iter:   3 05:01:58   -15.623692   -0.82  -1.44   +2.6,+0.0,-0.0
# iter:   4 05:02:18   -15.643578   -1.32  -1.55   +2.6,+0.0,-0.0
# iter:   5 05:02:39   -15.702199   -1.62  -1.66   +2.7,-0.0,-0.0
# iter:   6 05:02:59   -15.680239   -2.41  -2.08   +2.7,-0.0,-0.0
# iter:   7 05:03:20   -15.674838   -2.39  -2.20   +2.7,-0.0,-0.0
# iter:   8 05:03:40   -15.671910c  -3.24  -2.43   +2.7,-0.0,-0.0
# iter:   9 05:04:01   -15.673442c  -3.25  -2.83   +2.7,-0.0,-0.0
# iter:  10 05:04:21   -15.672422c  -3.81  -2.65   +2.7,-0.0,-0.0
# iter:  11 05:04:42   -15.671934c  -4.02  -3.02   +2.7,-0.0,-0.0
# iter:  12 05:05:02   -15.671952c  -4.59  -3.59   +2.7,-0.0,-0.0
# iter:  13 05:05:22   -15.671920c  -4.75  -3.48   +2.7,-0.0,-0.0
# iter:  14 05:05:43   -15.671922c  -5.02  -3.78   +2.7,-0.0,-0.0
# iter:  15 05:06:03   -15.671953c  -5.11  -3.99   +2.7,-0.0,-0.0
# iter:  16 05:06:23   -15.671934c  -5.52  -3.83   +2.7,-0.0,-0.0
# iter:  17 05:06:44   -15.671933c  -5.81  -4.65c  +2.7,-0.0,-0.0
# iter:  18 05:07:04   -15.671934c  -6.21  -4.78c  +2.7,-0.0,-0.0
# iter:  19 05:07:24   -15.671935c  -6.43  -4.85c  +2.7,-0.0,-0.0
# iter:  20 05:07:45   -15.671935c  -6.65  -4.82c  +2.7,-0.0,-0.0
# iter:  21 05:08:05   -15.671935c  -6.87  -5.07c  +2.7,-0.0,-0.0
# iter:  22 05:08:25   -15.671935c  -7.15  -5.06c  +2.7,-0.0,-0.0
# iter:  23 05:08:46   -15.671935c  -7.36  -5.20c  +2.7,-0.0,-0.0
# iter:  24 05:09:06   -15.671935c  -7.65c -5.42c  +2.7,-0.0,-0.0
scf_steps: 24
energies:  # eV
  coulomb:          -5.391871
  zero:              0.040908
  xc:              -16.411172
  external:          0.000000
  kinetic:           6.093564
  spinorbit:         0.000000
  entropy:          -0.006727
  total:           -15.675299
  extrapolated:    -15.671935

dipole moment: [-4.698113, -8.137295, -8.236327]  # |e|*Ang

total magnetic moment: [2.681862, -0.000934, -0.000000]

local magnetic moments: [
  [ 2.533172, -0.000039, -0.000000],  # V  0
  [ 0.000684,  0.008842, -0.000000],  # Br 1
  [ 0.000829,  0.008829, -0.000000]]  # Br 2


Fermi level: -0.643 eV

kpt = [-0.417, -0.417, 0.000], weight = 0.007:
  Band      eig [eV]   occ [0-1]
     0       -65.393       1.000
   ...
    19        -5.116       1.000
    20        -5.087       1.000
    21        -4.945       1.000
    22        -4.885       1.000
    23        -4.784       1.000
    24        -1.542       1.000
    25        -1.280       0.998
    26        -1.205       0.996
    27        -0.025       0.002
    28         0.132       0.000
    29         0.746       0.000
    30         0.935       0.000
    31         1.017       0.000
    32         1.530       0.000
    33         1.562       0.000
    34         3.313       0.000
   ...
    41         6.239       0.000

kpt = [-0.417, -0.333, 0.000], weight = 0.007:
  Band      eig [eV]   occ [0-1]
     0       -65.393       1.000
   ...
    19        -5.099       1.000
    20        -5.027       1.000
    21        -4.912       1.000
    22        -4.824       1.000
    23        -4.622       1.000
    24        -1.588       1.000
    25        -1.341       0.999
    26        -1.217       0.997
    27        -0.082       0.004
    28         0.170       0.000
    29         0.744       0.000
    30         0.912       0.000
    31         1.010       0.000
    32         1.489       0.000
    33         1.610       0.000
    34         3.107       0.000
   ...
    41         5.652       0.000

kpt = [-0.417, -0.250, 0.000], weight = 0.007:
  Band      eig [eV]   occ [0-1]
     0       -65.393       1.000
   ...
    19        -5.136       1.000
    20        -4.953       1.000
    21        -4.849       1.000
    22        -4.678       1.000
    23        -4.458       1.000
    24        -1.529       1.000
    25        -1.449       1.000
    26        -1.197       0.996
    27        -0.039       0.002
    28         0.082       0.001
    29         0.697       0.000
    30         0.837       0.000
    31         1.040       0.000
    32         1.453       0.000
    33         1.511       0.000
    34         3.223       0.000
   ...
    41         5.399       0.000
(only showing first 3 out of 144 k-points)

Gap: 0.922 eV
Transition (v -> c):
  (s=0, k=137, n=26, [0.50, -0.00, 0.00]) -> (s=0, k=68, n=27, [-0.00, 0.25, 0.00])
# Writing to Band/gsq-66.gpw (mode='')

---

timing:  # [seconds]
  Total: 531.164  # ━━━━━━━━━━━━━━━━━━━━━━━━━━━━━━━━━━━━━━━━━━━━━━━━━━━━━━━━━
  Init:   14.518  # ━╸
  SCF:   488.385  # ━━━━━━━━━━━━━━━━━━━━━━━━━━━━━━━━━━━━━━━━━━━━━━━━━━━━╸

Max RSS: 1414.156  # MiB
