#  __  _  _
# | _ |_)|_||  |
# |__||  | ||/\| - 24.1.0

User:   s194113@n-62-28-20
Date:   Fri Apr 26 01:49:55 2024
Arch:   x86_64
Pid:    31927
CWD:    /work3/s194113/10302/10302_NM/VBr2
Python: 3.8.5
gpaw:   /zhome/87/8/147075/venv-name/gpaw/gpaw (10808453a8)
_gpaw:  /zhome/87/8/147075/venv-name/gpaw/
        _gpaw.cpython-38-x86_64-linux-gnu.so (10808453a8)
ase:    /zhome/87/8/147075/venv-name/ase/ase (version 3.23.0b1-c36115a2db)
numpy:  /zhome/87/8/147075/venv-name/lib/python3.8/site-packages/numpy (version 1.24.4)
scipy:  /zhome/87/8/147075/venv-name/lib/python3.8/site-packages/scipy (version 1.10.1)
libxc:  4.3.4
units:  Angstrom and eV
cores: 12
OpenMP: False
OMP_NUM_THREADS: 1

---
input parameters:
  kpts: 
    density: 6.0
    gamma: True
  magmoms: [[2.64162512, 0, 0], [-0.02514574, 0, 0], [-0.02514574, 0, 0]]
  mixer: 
    backend: 'pulay'
    beta: 0.05
    method: 'sum'
    nmaxold: 5
    weight: 100
  mode: 
    name: 'pw'
    ecut: 600
    qspiral: array([0.43650794, 0.12698413, 0.        ])
  parallel: 
    kpt: None
    domain: 1
    band: 1
    order: 'kdb'
    stridebands: False
    augment_grids: False
    sl_auto: False
    sl_default: None
    sl_diagonalize: None
    sl_inverse_cholesky: None
    sl_lcao: None
    sl_lrtddft: None
    use_elpa: False
    elpasolver: '2stage'
    buffer_size: None
    gpu: False
  symmetry: 
    point_group: False
    time_reversal: False
  xc: 
    name: 'LDA'

#                        
#                        
#                        
#                        
#              Br        
#                        
#                        
#        V Br            
#                        
#                        
#                        
#                        
#                        

atoms: [  # symbols, positions [Ang] and initial magnetic moments
  [  V, [   0.000000,    0.000000,    7.448555], [ 2.642,  0.000,  0.000]], # 0
  [ Br, [   1.920224,    1.108642,    8.897111], [-0.025,  0.000,  0.000]], # 1
  [ Br, [   0.000000,    2.217284,    6.000000], [-0.025,  0.000,  0.000]]] # 2

cell: [  # Ang
#     x            y            z
  [   3.840448,    0.000000,    0.000000],
  [  -1.920224,    3.325925,    0.000000],
  [   0.000000,    0.000000,   14.897111]]

periodic: [True      , True      , False     ]
lengths:  [  3.840448,   3.840448,  14.897111]  # Ang
angles:   [ 90.000000,  90.000000, 120.000000]

symmetry:
  number of symmetries: 1
  rotations: [
    [[ 1,  0,  0], [ 0,  1,  0], [ 0,  0,  1]]]

bz sampling:
  number of bz points: 144
  number of ibz points: 144
  monkhorst-pack size: [12, 12, 1]
  monkhorst-pack shift: [0.041666666666666664, 0.041666666666666664, 0.0]
  points and weights: [
    [[ -0.41666667,  -0.41666667,   0.00000000], 0.00694444],  # 0
    [[ -0.41666667,  -0.33333333,   0.00000000], 0.00694444],  # 1
    [[ -0.41666667,  -0.25000000,   0.00000000], 0.00694444],  # 2
    [[ -0.41666667,  -0.16666667,   0.00000000], 0.00694444],  # 3
    [[ -0.41666667,  -0.08333333,   0.00000000], 0.00694444],  # 4
    [[ -0.41666667,  -0.00000000,   0.00000000], 0.00694444],  # 5
    [[ -0.41666667,   0.08333333,   0.00000000], 0.00694444],  # 6
    [[ -0.41666667,   0.16666667,   0.00000000], 0.00694444],  # 7
    [[ -0.41666667,   0.25000000,   0.00000000], 0.00694444],  # 8
    [[ -0.41666667,   0.33333333,   0.00000000], 0.00694444],  # 9
    # ...
    [[  0.50000000,   0.50000000,   0.00000000], 0.00694444]]  # 143

plane wave coefficients: 6385
cutoff: 600.0 eV

spin-components: 4  # (non-collinear spins)
bands: 42
valence electrons: 27.0
spin-degeneracy: 1
dtype: complex128

memory:
    wave functions: 1_232_437_248  # bytes  (102_703_104 per core)

parallelization:
    kpt:    12
    domain: 1
    band:   1

density:
  components: 4
  grid points: [24 24 90]
  charge: 0.0  # |e|

potential:
  grid points: [24 24 90]

species:
  V:
    name: Vanadium
    id: 7939ce69e6bb5930668dfcf9bb1979c3
    Z: 23.0
    valence: 13
    core: 10
    charge: 0.0
    file: /zhome/86/d/1666/PAW/gpaw-setups-0.9.20000/V.LDA.gz
    compensation charges: {type: gauss,
                           rc: 0.37,
                           lmax: 2}
    cutoffs: {filter: 2.14,
              core: 0.96}
    valence states:
      #              energy  rcut
      - 3s(2.00)   -69.819   1.254
      - 4s(2.00)    -4.846   1.254
      - 3p(6.00)   -43.961   1.281
      - 4p(0.00)    -1.526   1.281
      - 3d(3.00)    -5.381   1.169
      -  d          21.830   1.169
  
    # Using partial waves for V as LCAO basis

  Br:
    name: Bromine
    id: 10a25bbcb3273ec7d8d7f6fc01d2618d
    Z: 35.0
    valence: 7
    core: 28
    charge: 0.0
    file: /zhome/86/d/1666/PAW/gpaw-setups-0.9.20000/Br.LDA.gz
    compensation charges: {type: gauss,
                           rc: 0.35,
                           lmax: 2}
    cutoffs: {filter: 1.98,
              core: 2.38}
    valence states:
      #              energy  rcut
      - 4s(2.00)   -20.306   1.111
      - 4p(5.00)    -8.003   1.111
      -  s           6.906   1.111
      -  p          19.208   1.111
      -  d           0.000   1.111
  
    # Using partial waves for Br as LCAO basis

Reference energy: -167392.690611  # eV

eigensolver:
  name: 'Davidson'
  niter: 2
  converge_bands: 'occupied'
Density mixing:
  Method: sum
  Backend: pulay
  Linear mixing parameter: 0.05
  old densities: 5
  Damping of long wavelength oscillations: 100
occupation numbers:
  Fermi-Dirac:
    width: 0.1000  # eV
  

poisson solver:
  ecut: 4800.0  # eV

xc functional:
  name: None

convergence criteria:
- Maximum [total energy] change in last 3 cyles: 0.0005 eV / valence electron
- Maximum integral of absolute [dens]ity change: 0.0001 electrons / valence electron
- Maximum integral of absolute [eigenst]ate change: 4e-08 eV^2 / valence electron
maximum number of iterations: 333

#      iter     time        total  log10-change:
#                          energy   eigst   dens
# iter:   1 01:50:28   -15.083492                  +2.6,+0.0,+0.0
# iter:   2 01:50:49   -15.664757   +0.11  -1.41   +2.6,+0.0,+0.0
# iter:   3 01:51:10   -15.622006   -0.75  -1.44   +2.6,+0.0,-0.0
# iter:   4 01:51:31   -15.640537   -1.28  -1.54   +2.6,+0.0,+0.0
# iter:   5 01:51:52   -15.701891   -1.56  -1.66   +2.7,-0.0,+0.0
# iter:   6 01:52:12   -15.676383   -2.32  -2.07   +2.6,-0.0,+0.0
# iter:   7 01:52:33   -15.672728   -2.40  -2.22   +2.6,-0.0,+0.0
# iter:   8 01:52:54   -15.669655c  -3.19  -2.45   +2.6,-0.0,-0.0
# iter:   9 01:53:15   -15.671725c  -3.22  -2.83   +2.6,-0.0,+0.0
# iter:  10 01:53:35   -15.669916c  -3.53  -2.61   +2.6,-0.0,-0.0
# iter:  11 01:53:56   -15.669701c  -4.08  -3.20   +2.6,-0.0,-0.0
# iter:  12 01:54:17   -15.669702c  -4.53  -3.62   +2.6,-0.0,-0.0
# iter:  13 01:54:37   -15.669714c  -4.82  -3.68   +2.6,-0.0,-0.0
# iter:  14 01:54:58   -15.669694c  -4.89  -3.78   +2.6,-0.0,-0.0
# iter:  15 01:55:18   -15.669691c  -5.31  -3.78   +2.6,-0.0,-0.0
# iter:  16 01:55:39   -15.669691c  -5.57  -3.90   +2.6,-0.0,-0.0
# iter:  17 01:55:59   -15.669690c  -5.82  -3.96   +2.6,-0.0,-0.0
# iter:  18 01:56:19   -15.669689c  -6.08  -4.03c  +2.6,-0.0,-0.0
# iter:  19 01:56:40   -15.669691c  -6.27  -4.15c  +2.6,-0.0,-0.0
# iter:  20 01:57:00   -15.669695c  -6.42  -4.17c  +2.6,-0.0,-0.0
# iter:  21 01:57:21   -15.669699c  -6.45  -4.19c  +2.6,-0.0,-0.0
# iter:  22 01:57:42   -15.669699c  -6.89  -4.36c  +2.6,-0.0,-0.0
# iter:  23 01:58:02   -15.669700c  -6.89  -4.46c  +2.6,-0.0,-0.0
# iter:  24 01:58:23   -15.669700c  -7.32  -4.88c  +2.6,-0.0,-0.0
# iter:  25 01:58:43   -15.669700c  -7.60c -5.39c  +2.6,-0.0,-0.0
scf_steps: 25
energies:  # eV
  coulomb:          -5.431606
  zero:              0.040926
  xc:              -16.418240
  external:          0.000000
  kinetic:           6.142828
  spinorbit:         0.000000
  entropy:          -0.007214
  total:           -15.673306
  extrapolated:    -15.669700

dipole moment: [-4.469675, -8.153449, -7.973131]  # |e|*Ang

total magnetic moment: [2.642350, -0.000151, -0.000000]

local magnetic moments: [
  [ 2.534113, -0.000005, -0.000000],  # V  0
  [ 0.007083,  0.000028,  0.000000],  # Br 1
  [-0.006516,  0.002777,  0.000000]]  # Br 2


Fermi level: -0.658 eV

kpt = [-0.417, -0.417, 0.000], weight = 0.007:
  Band      eig [eV]   occ [0-1]
     0       -65.394       1.000
   ...
    19        -5.135       1.000
    20        -5.090       1.000
    21        -5.010       1.000
    22        -4.792       1.000
    23        -4.688       1.000
    24        -1.513       1.000
    25        -1.334       0.999
    26        -1.193       0.995
    27        -0.034       0.002
    28         0.121       0.000
    29         0.788       0.000
    30         0.810       0.000
    31         1.062       0.000
    32         1.471       0.000
    33         1.587       0.000
    34         3.391       0.000
   ...
    41         6.003       0.000

kpt = [-0.417, -0.333, 0.000], weight = 0.007:
  Band      eig [eV]   occ [0-1]
     0       -65.394       1.000
   ...
    19        -5.186       1.000
    20        -5.050       1.000
    21        -4.796       1.000
    22        -4.586       1.000
    23        -4.560       1.000
    24        -1.556       1.000
    25        -1.335       0.999
    26        -1.233       0.997
    27        -0.125       0.005
    28         0.159       0.000
    29         0.747       0.000
    30         0.871       0.000
    31         1.001       0.000
    32         1.357       0.000
    33         1.565       0.000
    34         3.156       0.000
   ...
    41         5.593       0.000

kpt = [-0.417, -0.250, 0.000], weight = 0.007:
  Band      eig [eV]   occ [0-1]
     0       -65.395       1.000
   ...
    19        -5.165       1.000
    20        -4.876       1.000
    21        -4.713       1.000
    22        -4.437       1.000
    23        -4.366       1.000
    24        -1.527       1.000
    25        -1.334       0.999
    26        -1.274       0.998
    27        -0.137       0.005
    28         0.082       0.001
    29         0.702       0.000
    30         0.836       0.000
    31         0.954       0.000
    32         1.257       0.000
    33         1.445       0.000
    34         3.304       0.000
   ...
    41         5.465       0.000
(only showing first 3 out of 144 k-points)

Gap: 0.839 eV
Transition (v -> c):
  (s=0, k=137, n=26, [0.50, -0.00, 0.00]) -> (s=0, k=62, n=27, [-0.00, -0.25, 0.00])
# Writing to Band/gsq-44.gpw (mode='')

---

timing:  # [seconds]
  Total: 529.063  # ━━━━━━━━━━━━━━━━━━━━━━━━━━━━━━━━━━━━━━━━━━━━━━━━━━━━━━━━━
  Init:   14.517  # ━╸
  SCF:   514.067  # ━━━━━━━━━━━━━━━━━━━━━━━━━━━━━━━━━━━━━━━━━━━━━━━━━━━━━━━╸

Max RSS: 976.336  # MiB
