#  __  _  _
# | _ |_)|_||  |
# |__||  | ||/\| - 24.1.0

User:   s194113@n-62-28-20
Date:   Fri Apr 26 01:58:43 2024
Arch:   x86_64
Pid:    31927
CWD:    /work3/s194113/10302/10302_NM/VBr2
Python: 3.8.5
gpaw:   /zhome/87/8/147075/venv-name/gpaw/gpaw (10808453a8)
_gpaw:  /zhome/87/8/147075/venv-name/gpaw/
        _gpaw.cpython-38-x86_64-linux-gnu.so (10808453a8)
ase:    /zhome/87/8/147075/venv-name/ase/ase (version 3.23.0b1-c36115a2db)
numpy:  /zhome/87/8/147075/venv-name/lib/python3.8/site-packages/numpy (version 1.24.4)
scipy:  /zhome/87/8/147075/venv-name/lib/python3.8/site-packages/scipy (version 1.10.1)
libxc:  4.3.4
units:  Angstrom and eV
cores: 12
OpenMP: False
OMP_NUM_THREADS: 1

---
input parameters:
  kpts: 
    density: 6.0
    gamma: True
  magmoms: [[2.64162512, 0, 0], [-0.02514574, 0, 0], [-0.02514574, 0, 0]]
  mixer: 
    backend: 'pulay'
    beta: 0.05
    method: 'sum'
    nmaxold: 5
    weight: 100
  mode: 
    name: 'pw'
    ecut: 600
    qspiral: array([0.42857143, 0.14285714, 0.        ])
  parallel: 
    kpt: None
    domain: 1
    band: 1
    order: 'kdb'
    stridebands: False
    augment_grids: False
    sl_auto: False
    sl_default: None
    sl_diagonalize: None
    sl_inverse_cholesky: None
    sl_lcao: None
    sl_lrtddft: None
    use_elpa: False
    elpasolver: '2stage'
    buffer_size: None
    gpu: False
  symmetry: 
    point_group: False
    time_reversal: False
  xc: 
    name: 'LDA'

#                        
#                        
#                        
#                        
#              Br        
#                        
#                        
#        V Br            
#                        
#                        
#                        
#                        
#                        

atoms: [  # symbols, positions [Ang] and initial magnetic moments
  [  V, [   0.000000,    0.000000,    7.448555], [ 2.642,  0.000,  0.000]], # 0
  [ Br, [   1.920224,    1.108642,    8.897111], [-0.025,  0.000,  0.000]], # 1
  [ Br, [   0.000000,    2.217284,    6.000000], [-0.025,  0.000,  0.000]]] # 2

cell: [  # Ang
#     x            y            z
  [   3.840448,    0.000000,    0.000000],
  [  -1.920224,    3.325925,    0.000000],
  [   0.000000,    0.000000,   14.897111]]

periodic: [True      , True      , False     ]
lengths:  [  3.840448,   3.840448,  14.897111]  # Ang
angles:   [ 90.000000,  90.000000, 120.000000]

symmetry:
  number of symmetries: 1
  rotations: [
    [[ 1,  0,  0], [ 0,  1,  0], [ 0,  0,  1]]]

bz sampling:
  number of bz points: 144
  number of ibz points: 144
  monkhorst-pack size: [12, 12, 1]
  monkhorst-pack shift: [0.041666666666666664, 0.041666666666666664, 0.0]
  points and weights: [
    [[ -0.41666667,  -0.41666667,   0.00000000], 0.00694444],  # 0
    [[ -0.41666667,  -0.33333333,   0.00000000], 0.00694444],  # 1
    [[ -0.41666667,  -0.25000000,   0.00000000], 0.00694444],  # 2
    [[ -0.41666667,  -0.16666667,   0.00000000], 0.00694444],  # 3
    [[ -0.41666667,  -0.08333333,   0.00000000], 0.00694444],  # 4
    [[ -0.41666667,  -0.00000000,   0.00000000], 0.00694444],  # 5
    [[ -0.41666667,   0.08333333,   0.00000000], 0.00694444],  # 6
    [[ -0.41666667,   0.16666667,   0.00000000], 0.00694444],  # 7
    [[ -0.41666667,   0.25000000,   0.00000000], 0.00694444],  # 8
    [[ -0.41666667,   0.33333333,   0.00000000], 0.00694444],  # 9
    # ...
    [[  0.50000000,   0.50000000,   0.00000000], 0.00694444]]  # 143

plane wave coefficients: 6385
cutoff: 600.0 eV

spin-components: 4  # (non-collinear spins)
bands: 42
valence electrons: 27.0
spin-degeneracy: 1
dtype: complex128

memory:
    wave functions: 1_232_437_248  # bytes  (102_703_104 per core)

parallelization:
    kpt:    12
    domain: 1
    band:   1

density:
  components: 4
  grid points: [24 24 90]
  charge: 0.0  # |e|

potential:
  grid points: [24 24 90]

species:
  V:
    name: Vanadium
    id: 7939ce69e6bb5930668dfcf9bb1979c3
    Z: 23.0
    valence: 13
    core: 10
    charge: 0.0
    file: /zhome/86/d/1666/PAW/gpaw-setups-0.9.20000/V.LDA.gz
    compensation charges: {type: gauss,
                           rc: 0.37,
                           lmax: 2}
    cutoffs: {filter: 2.14,
              core: 0.96}
    valence states:
      #              energy  rcut
      - 3s(2.00)   -69.819   1.254
      - 4s(2.00)    -4.846   1.254
      - 3p(6.00)   -43.961   1.281
      - 4p(0.00)    -1.526   1.281
      - 3d(3.00)    -5.381   1.169
      -  d          21.830   1.169
  
    # Using partial waves for V as LCAO basis

  Br:
    name: Bromine
    id: 10a25bbcb3273ec7d8d7f6fc01d2618d
    Z: 35.0
    valence: 7
    core: 28
    charge: 0.0
    file: /zhome/86/d/1666/PAW/gpaw-setups-0.9.20000/Br.LDA.gz
    compensation charges: {type: gauss,
                           rc: 0.35,
                           lmax: 2}
    cutoffs: {filter: 1.98,
              core: 2.38}
    valence states:
      #              energy  rcut
      - 4s(2.00)   -20.306   1.111
      - 4p(5.00)    -8.003   1.111
      -  s           6.906   1.111
      -  p          19.208   1.111
      -  d           0.000   1.111
  
    # Using partial waves for Br as LCAO basis

Reference energy: -167392.690611  # eV

eigensolver:
  name: 'Davidson'
  niter: 2
  converge_bands: 'occupied'
Density mixing:
  Method: sum
  Backend: pulay
  Linear mixing parameter: 0.05
  old densities: 5
  Damping of long wavelength oscillations: 100
occupation numbers:
  Fermi-Dirac:
    width: 0.1000  # eV
  

poisson solver:
  ecut: 4800.0  # eV

xc functional:
  name: None

convergence criteria:
- Maximum [total energy] change in last 3 cyles: 0.0005 eV / valence electron
- Maximum integral of absolute [dens]ity change: 0.0001 electrons / valence electron
- Maximum integral of absolute [eigenst]ate change: 4e-08 eV^2 / valence electron
maximum number of iterations: 333

#      iter     time        total  log10-change:
#                          energy   eigst   dens
# iter:   1 01:59:17   -15.073670                  +2.6,+0.0,+0.0
# iter:   2 01:59:38   -15.663932   +0.12  -1.41   +2.6,+0.0,-0.0
# iter:   3 01:59:58   -15.622620   -0.74  -1.44   +2.6,+0.0,-0.0
# iter:   4 02:00:19   -15.641022   -1.27  -1.54   +2.6,+0.0,-0.0
# iter:   5 02:00:39   -15.703264   -1.55  -1.66   +2.6,-0.0,-0.0
# iter:   6 02:01:00   -15.676956   -2.32  -2.07   +2.6,-0.0,-0.0
# iter:   7 02:01:20   -15.673228   -2.40  -2.22   +2.6,-0.0,-0.0
# iter:   8 02:01:41   -15.670184c  -3.19  -2.45   +2.6,-0.0,-0.0
# iter:   9 02:02:01   -15.672253c  -3.21  -2.83   +2.6,-0.0,-0.0
# iter:  10 02:02:22   -15.670447c  -3.53  -2.61   +2.6,-0.0,-0.0
# iter:  11 02:02:42   -15.670231c  -4.08  -3.19   +2.6,-0.0,-0.0
# iter:  12 02:03:03   -15.670232c  -4.53  -3.61   +2.6,-0.0,-0.0
# iter:  13 02:03:23   -15.670245c  -4.82  -3.67   +2.6,-0.0,-0.0
# iter:  14 02:03:43   -15.670223c  -4.88  -3.78   +2.6,-0.0,-0.0
# iter:  15 02:04:04   -15.670221c  -5.30  -3.79   +2.6,-0.0,-0.0
# iter:  16 02:04:24   -15.670221c  -5.57  -3.90   +2.6,-0.0,-0.0
# iter:  17 02:04:44   -15.670220c  -5.82  -3.95   +2.6,-0.0,-0.0
# iter:  18 02:05:05   -15.670219c  -6.08  -4.02c  +2.6,-0.0,-0.0
# iter:  19 02:05:25   -15.670221c  -6.26  -4.14c  +2.6,-0.0,-0.0
# iter:  20 02:05:45   -15.670225c  -6.40  -4.16c  +2.6,-0.0,-0.0
# iter:  21 02:06:05   -15.670229c  -6.41  -4.17c  +2.6,-0.0,-0.0
# iter:  22 02:06:26   -15.670229c  -6.89  -4.36c  +2.6,-0.0,-0.0
# iter:  23 02:06:46   -15.670230c  -6.88  -4.45c  +2.6,-0.0,-0.0
# iter:  24 02:07:06   -15.670230c  -7.27  -4.85c  +2.6,-0.0,-0.0
# iter:  25 02:07:27   -15.670230c  -7.55c -5.26c  +2.6,-0.0,-0.0
scf_steps: 25
energies:  # eV
  coulomb:          -5.421516
  zero:              0.041097
  xc:              -16.415119
  external:          0.000000
  kinetic:           6.128879
  spinorbit:         0.000000
  entropy:          -0.007142
  total:           -15.673801
  extrapolated:    -15.670230

dipole moment: [-4.476343, -8.135315, -7.946715]  # |e|*Ang

total magnetic moment: [2.638565, -0.000162, -0.000000]

local magnetic moments: [
  [ 2.533252, -0.000006, -0.000000],  # V  0
  [ 0.006807,  0.000030, -0.000000],  # Br 1
  [-0.006121,  0.002981, -0.000000]]  # Br 2


Fermi level: -0.657 eV

kpt = [-0.417, -0.417, 0.000], weight = 0.007:
  Band      eig [eV]   occ [0-1]
     0       -65.395       1.000
   ...
    19        -5.125       1.000
    20        -5.104       1.000
    21        -5.024       1.000
    22        -4.783       1.000
    23        -4.705       1.000
    24        -1.508       1.000
    25        -1.330       0.999
    26        -1.196       0.995
    27        -0.035       0.002
    28         0.118       0.000
    29         0.793       0.000
    30         0.815       0.000
    31         1.056       0.000
    32         1.472       0.000
    33         1.582       0.000
    34         3.407       0.000
   ...
    41         5.962       0.000

kpt = [-0.417, -0.333, 0.000], weight = 0.007:
  Band      eig [eV]   occ [0-1]
     0       -65.395       1.000
   ...
    19        -5.184       1.000
    20        -5.046       1.000
    21        -4.811       1.000
    22        -4.594       1.000
    23        -4.560       1.000
    24        -1.556       1.000
    25        -1.330       0.999
    26        -1.238       0.997
    27        -0.123       0.005
    28         0.155       0.000
    29         0.747       0.000
    30         0.876       0.000
    31         0.994       0.000
    32         1.366       0.000
    33         1.562       0.000
    34         3.157       0.000
   ...
    41         5.596       0.000

kpt = [-0.417, -0.250, 0.000], weight = 0.007:
  Band      eig [eV]   occ [0-1]
     0       -65.395       1.000
   ...
    19        -5.158       1.000
    20        -4.866       1.000
    21        -4.718       1.000
    22        -4.455       1.000
    23        -4.359       1.000
    24        -1.535       1.000
    25        -1.341       0.999
    26        -1.268       0.998
    27        -0.128       0.005
    28         0.078       0.001
    29         0.693       0.000
    30         0.839       0.000
    31         0.957       0.000
    32         1.270       0.000
    33         1.444       0.000
    34         3.276       0.000
   ...
    41         5.372       0.000
(only showing first 3 out of 144 k-points)

Gap: 0.843 eV
Transition (v -> c):
  (s=0, k=137, n=26, [0.50, -0.00, 0.00]) -> (s=0, k=68, n=27, [-0.00, 0.25, 0.00])
# Writing to Band/gsq-45.gpw (mode='')

---

timing:  # [seconds]
  Total: 523.692  # ━━━━━━━━━━━━━━━━━━━━━━━━━━━━━━━━━━━━━━━━━━━━━━━━━━━━━━━━━
  Init:   14.639  # ━╸
  SCF:   508.590  # ━━━━━━━━━━━━━━━━━━━━━━━━━━━━━━━━━━━━━━━━━━━━━━━━━━━━━━━╸

Max RSS: 987.672  # MiB
