#  __  _  _
# | _ |_)|_||  |
# |__||  | ||/\| - 24.1.0

User:   s194113@n-62-28-20
Date:   Thu Apr 25 21:18:21 2024
Arch:   x86_64
Pid:    31927
CWD:    /work3/s194113/10302/10302_NM/VBr2
Python: 3.8.5
gpaw:   /zhome/87/8/147075/venv-name/gpaw/gpaw (10808453a8)
_gpaw:  /zhome/87/8/147075/venv-name/gpaw/
        _gpaw.cpython-38-x86_64-linux-gnu.so (10808453a8)
ase:    /zhome/87/8/147075/venv-name/ase/ase (version 3.23.0b1-c36115a2db)
numpy:  /zhome/87/8/147075/venv-name/lib/python3.8/site-packages/numpy (version 1.24.4)
scipy:  /zhome/87/8/147075/venv-name/lib/python3.8/site-packages/scipy (version 1.10.1)
libxc:  4.3.4
units:  Angstrom and eV
cores: 12
OpenMP: False
OMP_NUM_THREADS: 1

---
input parameters:
  kpts: 
    density: 6.0
    gamma: True
  magmoms: [[2.64162512, 0, 0], [-0.02514574, 0, 0], [-0.02514574, 0, 0]]
  mixer: 
    backend: 'pulay'
    beta: 0.05
    method: 'sum'
    nmaxold: 5
    weight: 100
  mode: 
    name: 'pw'
    ecut: 600
    qspiral: array([0.15277778, 0.        , 0.        ])
  parallel: 
    kpt: None
    domain: 1
    band: 1
    order: 'kdb'
    stridebands: False
    augment_grids: False
    sl_auto: False
    sl_default: None
    sl_diagonalize: None
    sl_inverse_cholesky: None
    sl_lcao: None
    sl_lrtddft: None
    use_elpa: False
    elpasolver: '2stage'
    buffer_size: None
    gpu: False
  symmetry: 
    point_group: False
    time_reversal: False
  xc: 
    name: 'LDA'

#                        
#                        
#                        
#                        
#              Br        
#                        
#                        
#        V Br            
#                        
#                        
#                        
#                        
#                        

atoms: [  # symbols, positions [Ang] and initial magnetic moments
  [  V, [   0.000000,    0.000000,    7.448555], [ 2.642,  0.000,  0.000]], # 0
  [ Br, [   1.920224,    1.108642,    8.897111], [-0.025,  0.000,  0.000]], # 1
  [ Br, [   0.000000,    2.217284,    6.000000], [-0.025,  0.000,  0.000]]] # 2

cell: [  # Ang
#     x            y            z
  [   3.840448,    0.000000,    0.000000],
  [  -1.920224,    3.325925,    0.000000],
  [   0.000000,    0.000000,   14.897111]]

periodic: [True      , True      , False     ]
lengths:  [  3.840448,   3.840448,  14.897111]  # Ang
angles:   [ 90.000000,  90.000000, 120.000000]

symmetry:
  number of symmetries: 1
  rotations: [
    [[ 1,  0,  0], [ 0,  1,  0], [ 0,  0,  1]]]

bz sampling:
  number of bz points: 144
  number of ibz points: 144
  monkhorst-pack size: [12, 12, 1]
  monkhorst-pack shift: [0.041666666666666664, 0.041666666666666664, 0.0]
  points and weights: [
    [[ -0.41666667,  -0.41666667,   0.00000000], 0.00694444],  # 0
    [[ -0.41666667,  -0.33333333,   0.00000000], 0.00694444],  # 1
    [[ -0.41666667,  -0.25000000,   0.00000000], 0.00694444],  # 2
    [[ -0.41666667,  -0.16666667,   0.00000000], 0.00694444],  # 3
    [[ -0.41666667,  -0.08333333,   0.00000000], 0.00694444],  # 4
    [[ -0.41666667,  -0.00000000,   0.00000000], 0.00694444],  # 5
    [[ -0.41666667,   0.08333333,   0.00000000], 0.00694444],  # 6
    [[ -0.41666667,   0.16666667,   0.00000000], 0.00694444],  # 7
    [[ -0.41666667,   0.25000000,   0.00000000], 0.00694444],  # 8
    [[ -0.41666667,   0.33333333,   0.00000000], 0.00694444],  # 9
    # ...
    [[  0.50000000,   0.50000000,   0.00000000], 0.00694444]]  # 143

plane wave coefficients: 6385
cutoff: 600.0 eV

spin-components: 4  # (non-collinear spins)
bands: 42
valence electrons: 27.0
spin-degeneracy: 1
dtype: complex128

memory:
    wave functions: 1_232_437_248  # bytes  (102_703_104 per core)

parallelization:
    kpt:    12
    domain: 1
    band:   1

density:
  components: 4
  grid points: [24 24 90]
  charge: 0.0  # |e|

potential:
  grid points: [24 24 90]

species:
  V:
    name: Vanadium
    id: 7939ce69e6bb5930668dfcf9bb1979c3
    Z: 23.0
    valence: 13
    core: 10
    charge: 0.0
    file: /zhome/86/d/1666/PAW/gpaw-setups-0.9.20000/V.LDA.gz
    compensation charges: {type: gauss,
                           rc: 0.37,
                           lmax: 2}
    cutoffs: {filter: 2.14,
              core: 0.96}
    valence states:
      #              energy  rcut
      - 3s(2.00)   -69.819   1.254
      - 4s(2.00)    -4.846   1.254
      - 3p(6.00)   -43.961   1.281
      - 4p(0.00)    -1.526   1.281
      - 3d(3.00)    -5.381   1.169
      -  d          21.830   1.169
  
    # Using partial waves for V as LCAO basis

  Br:
    name: Bromine
    id: 10a25bbcb3273ec7d8d7f6fc01d2618d
    Z: 35.0
    valence: 7
    core: 28
    charge: 0.0
    file: /zhome/86/d/1666/PAW/gpaw-setups-0.9.20000/Br.LDA.gz
    compensation charges: {type: gauss,
                           rc: 0.35,
                           lmax: 2}
    cutoffs: {filter: 1.98,
              core: 2.38}
    valence states:
      #              energy  rcut
      - 4s(2.00)   -20.306   1.111
      - 4p(5.00)    -8.003   1.111
      -  s           6.906   1.111
      -  p          19.208   1.111
      -  d           0.000   1.111
  
    # Using partial waves for Br as LCAO basis

Reference energy: -167392.690611  # eV

eigensolver:
  name: 'Davidson'
  niter: 2
  converge_bands: 'occupied'
Density mixing:
  Method: sum
  Backend: pulay
  Linear mixing parameter: 0.05
  old densities: 5
  Damping of long wavelength oscillations: 100
occupation numbers:
  Fermi-Dirac:
    width: 0.1000  # eV
  

poisson solver:
  ecut: 4800.0  # eV

xc functional:
  name: None

convergence criteria:
- Maximum [total energy] change in last 3 cyles: 0.0005 eV / valence electron
- Maximum integral of absolute [dens]ity change: 0.0001 electrons / valence electron
- Maximum integral of absolute [eigenst]ate change: 4e-08 eV^2 / valence electron
maximum number of iterations: 333

#      iter     time        total  log10-change:
#                          energy   eigst   dens
# iter:   1 21:18:55   -15.729992                  +2.6,+0.0,+0.0
# iter:   2 21:19:16   -15.737995   -0.56  -1.40   +2.7,+0.0,+0.0
# iter:   3 21:19:37   -15.602308   -1.13  -1.44   +2.8,+0.0,-0.0
# iter:   4 21:19:57   -15.623777   -1.45  -1.56   +2.9,-0.0,+0.0
# iter:   5 21:20:18   -15.663985   -1.91  -1.68   +3.0,-0.0,-0.0
# iter:   6 21:20:39   -15.652183   -2.55  -2.15   +3.0,-0.0,-0.0
# iter:   7 21:20:59   -15.654369c  -2.44  -2.25   +2.9,-0.0,-0.0
# iter:   8 21:21:20   -15.647504c  -3.24  -2.40   +2.9,-0.0,-0.0
# iter:   9 21:21:41   -15.647612c  -4.00  -2.86   +2.9,-0.0,-0.0
# iter:  10 21:22:02   -15.647522c  -3.87  -2.79   +2.9,-0.0,-0.0
# iter:  11 21:22:22   -15.647545c  -4.40  -3.35   +2.9,-0.0,-0.0
# iter:  12 21:22:43   -15.647546c  -4.93  -3.65   +2.9,-0.0,-0.0
# iter:  13 21:23:03   -15.647519c  -5.17  -3.67   +2.9,-0.0,-0.0
# iter:  14 21:23:24   -15.647530c  -5.49  -3.89   +2.9,-0.0,-0.0
# iter:  15 21:23:44   -15.647515c  -5.57  -3.92   +2.9,-0.0,-0.0
# iter:  16 21:24:05   -15.647517c  -5.95  -4.11c  +2.9,-0.0,-0.0
# iter:  17 21:24:25   -15.647515c  -6.26  -4.16c  +2.9,-0.0,-0.0
# iter:  18 21:24:46   -15.647516c  -6.43  -4.26c  +2.9,-0.0,-0.0
# iter:  19 21:25:06   -15.647518c  -6.62  -4.34c  +2.9,-0.0,-0.0
# iter:  20 21:25:27   -15.647518c  -7.09  -4.83c  +2.9,-0.0,-0.0
# iter:  21 21:25:47   -15.647518c  -7.41c -4.86c  +2.9,-0.0,-0.0
scf_steps: 21
energies:  # eV
  coulomb:          -6.025528
  zero:              0.038881
  xc:              -16.638985
  external:          0.000000
  kinetic:           6.981959
  spinorbit:         0.000000
  entropy:          -0.007691
  total:           -15.651364
  extrapolated:    -15.647518

dipole moment: [-4.981838, -8.802040, -9.874511]  # |e|*Ang

total magnetic moment: [2.941843, -0.001250, -0.000000]

local magnetic moments: [
  [ 2.610478, -0.000055, -0.000000],  # V  0
  [-0.020528,  0.015169, -0.000000],  # Br 1
  [-0.024199,  0.008118,  0.000000]]  # Br 2


Fermi level: -0.548 eV

kpt = [-0.417, -0.417, 0.000], weight = 0.007:
  Band      eig [eV]   occ [0-1]
     0       -65.310       1.000
   ...
    19        -5.105       1.000
    20        -5.023       1.000
    21        -4.972       1.000
    22        -4.833       1.000
    23        -4.739       1.000
    24        -1.607       1.000
    25        -1.134       0.997
    26        -1.117       0.997
    27         0.108       0.001
    28         0.218       0.000
    29         0.494       0.000
    30         1.145       0.000
    31         1.191       0.000
    32         1.629       0.000
    33         1.777       0.000
    34         3.283       0.000
   ...
    41         6.295       0.000

kpt = [-0.417, -0.333, 0.000], weight = 0.007:
  Band      eig [eV]   occ [0-1]
     0       -65.310       1.000
   ...
    19        -5.181       1.000
    20        -5.129       1.000
    21        -4.927       1.000
    22        -4.886       1.000
    23        -4.663       1.000
    24        -1.456       1.000
    25        -1.163       0.998
    26        -1.119       0.997
    27         0.048       0.003
    28         0.176       0.001
    29         0.746       0.000
    30         1.060       0.000
    31         1.147       0.000
    32         1.548       0.000
    33         1.678       0.000
    34         3.737       0.000
   ...
    41         6.084       0.000

kpt = [-0.417, -0.250, 0.000], weight = 0.007:
  Band      eig [eV]   occ [0-1]
     0       -65.310       1.000
   ...
    19        -5.197       1.000
    20        -5.170       1.000
    21        -4.998       1.000
    22        -4.820       1.000
    23        -4.630       1.000
    24        -1.428       1.000
    25        -1.166       0.998
    26        -1.123       0.997
    27         0.003       0.004
    28         0.195       0.001
    29         0.744       0.000
    30         1.040       0.000
    31         1.145       0.000
    32         1.522       0.000
    33         1.688       0.000
    34         3.969       0.000
   ...
    41         6.126       0.000
(only showing first 3 out of 144 k-points)

Gap: 0.930 eV
Transition (v -> c):
  (s=0, k=45, n=26, [-0.17, 0.33, 0.00]) -> (s=0, k=86, n=27, [0.17, -0.25, 0.00])
# Writing to Band/gsq-11.gpw (mode='')

---

timing:  # [seconds]
  Total: 446.865  # ━━━━━━━━━━━━━━━━━━━━━━━━━━━━━━━━━━━━━━━━━━━━━━━━━━━━━━━━━
  Init:   14.482  # ━━
  SCF:   431.559  # ━━━━━━━━━━━━━━━━━━━━━━━━━━━━━━━━━━━━━━━━━━━━━━━━━━━━━━━

Max RSS: 576.824  # MiB
