#  __  _  _
# | _ |_)|_||  |
# |__||  | ||/\| - 24.1.0

User:   s194113@n-62-28-20
Date:   Fri Apr 26 04:00:33 2024
Arch:   x86_64
Pid:    31927
CWD:    /work3/s194113/10302/10302_NM/VBr2
Python: 3.8.5
gpaw:   /zhome/87/8/147075/venv-name/gpaw/gpaw (10808453a8)
_gpaw:  /zhome/87/8/147075/venv-name/gpaw/
        _gpaw.cpython-38-x86_64-linux-gnu.so (10808453a8)
ase:    /zhome/87/8/147075/venv-name/ase/ase (version 3.23.0b1-c36115a2db)
numpy:  /zhome/87/8/147075/venv-name/lib/python3.8/site-packages/numpy (version 1.24.4)
scipy:  /zhome/87/8/147075/venv-name/lib/python3.8/site-packages/scipy (version 1.10.1)
libxc:  4.3.4
units:  Angstrom and eV
cores: 12
OpenMP: False
OMP_NUM_THREADS: 1

---
input parameters:
  kpts: 
    density: 6.0
    gamma: True
  magmoms: [[2.64162512, 0, 0], [-0.02514574, 0, 0], [-0.02514574, 0, 0]]
  mixer: 
    backend: 'pulay'
    beta: 0.05
    method: 'sum'
    nmaxold: 5
    weight: 100
  mode: 
    name: 'pw'
    ecut: 600
    qspiral: array([0.31782946, 0.31782946, 0.        ])
  parallel: 
    kpt: None
    domain: 1
    band: 1
    order: 'kdb'
    stridebands: False
    augment_grids: False
    sl_auto: False
    sl_default: None
    sl_diagonalize: None
    sl_inverse_cholesky: None
    sl_lcao: None
    sl_lrtddft: None
    use_elpa: False
    elpasolver: '2stage'
    buffer_size: None
    gpu: False
  symmetry: 
    point_group: False
    time_reversal: False
  xc: 
    name: 'LDA'

#                        
#                        
#                        
#                        
#              Br        
#                        
#                        
#        V Br            
#                        
#                        
#                        
#                        
#                        

atoms: [  # symbols, positions [Ang] and initial magnetic moments
  [  V, [   0.000000,    0.000000,    7.448555], [ 2.642,  0.000,  0.000]], # 0
  [ Br, [   1.920224,    1.108642,    8.897111], [-0.025,  0.000,  0.000]], # 1
  [ Br, [   0.000000,    2.217284,    6.000000], [-0.025,  0.000,  0.000]]] # 2

cell: [  # Ang
#     x            y            z
  [   3.840448,    0.000000,    0.000000],
  [  -1.920224,    3.325925,    0.000000],
  [   0.000000,    0.000000,   14.897111]]

periodic: [True      , True      , False     ]
lengths:  [  3.840448,   3.840448,  14.897111]  # Ang
angles:   [ 90.000000,  90.000000, 120.000000]

symmetry:
  number of symmetries: 1
  rotations: [
    [[ 1,  0,  0], [ 0,  1,  0], [ 0,  0,  1]]]

bz sampling:
  number of bz points: 144
  number of ibz points: 144
  monkhorst-pack size: [12, 12, 1]
  monkhorst-pack shift: [0.041666666666666664, 0.041666666666666664, 0.0]
  points and weights: [
    [[ -0.41666667,  -0.41666667,   0.00000000], 0.00694444],  # 0
    [[ -0.41666667,  -0.33333333,   0.00000000], 0.00694444],  # 1
    [[ -0.41666667,  -0.25000000,   0.00000000], 0.00694444],  # 2
    [[ -0.41666667,  -0.16666667,   0.00000000], 0.00694444],  # 3
    [[ -0.41666667,  -0.08333333,   0.00000000], 0.00694444],  # 4
    [[ -0.41666667,  -0.00000000,   0.00000000], 0.00694444],  # 5
    [[ -0.41666667,   0.08333333,   0.00000000], 0.00694444],  # 6
    [[ -0.41666667,   0.16666667,   0.00000000], 0.00694444],  # 7
    [[ -0.41666667,   0.25000000,   0.00000000], 0.00694444],  # 8
    [[ -0.41666667,   0.33333333,   0.00000000], 0.00694444],  # 9
    # ...
    [[  0.50000000,   0.50000000,   0.00000000], 0.00694444]]  # 143

plane wave coefficients: 6385
cutoff: 600.0 eV

spin-components: 4  # (non-collinear spins)
bands: 42
valence electrons: 27.0
spin-degeneracy: 1
dtype: complex128

memory:
    wave functions: 1_232_437_248  # bytes  (102_703_104 per core)

parallelization:
    kpt:    12
    domain: 1
    band:   1

density:
  components: 4
  grid points: [24 24 90]
  charge: 0.0  # |e|

potential:
  grid points: [24 24 90]

species:
  V:
    name: Vanadium
    id: 7939ce69e6bb5930668dfcf9bb1979c3
    Z: 23.0
    valence: 13
    core: 10
    charge: 0.0
    file: /zhome/86/d/1666/PAW/gpaw-setups-0.9.20000/V.LDA.gz
    compensation charges: {type: gauss,
                           rc: 0.37,
                           lmax: 2}
    cutoffs: {filter: 2.14,
              core: 0.96}
    valence states:
      #              energy  rcut
      - 3s(2.00)   -69.819   1.254
      - 4s(2.00)    -4.846   1.254
      - 3p(6.00)   -43.961   1.281
      - 4p(0.00)    -1.526   1.281
      - 3d(3.00)    -5.381   1.169
      -  d          21.830   1.169
  
    # Using partial waves for V as LCAO basis

  Br:
    name: Bromine
    id: 10a25bbcb3273ec7d8d7f6fc01d2618d
    Z: 35.0
    valence: 7
    core: 28
    charge: 0.0
    file: /zhome/86/d/1666/PAW/gpaw-setups-0.9.20000/Br.LDA.gz
    compensation charges: {type: gauss,
                           rc: 0.35,
                           lmax: 2}
    cutoffs: {filter: 1.98,
              core: 2.38}
    valence states:
      #              energy  rcut
      - 4s(2.00)   -20.306   1.111
      - 4p(5.00)    -8.003   1.111
      -  s           6.906   1.111
      -  p          19.208   1.111
      -  d           0.000   1.111
  
    # Using partial waves for Br as LCAO basis

Reference energy: -167392.690611  # eV

eigensolver:
  name: 'Davidson'
  niter: 2
  converge_bands: 'occupied'
Density mixing:
  Method: sum
  Backend: pulay
  Linear mixing parameter: 0.05
  old densities: 5
  Damping of long wavelength oscillations: 100
occupation numbers:
  Fermi-Dirac:
    width: 0.1000  # eV
  

poisson solver:
  ecut: 4800.0  # eV

xc functional:
  name: None

convergence criteria:
- Maximum [total energy] change in last 3 cyles: 0.0005 eV / valence electron
- Maximum integral of absolute [dens]ity change: 0.0001 electrons / valence electron
- Maximum integral of absolute [eigenst]ate change: 4e-08 eV^2 / valence electron
maximum number of iterations: 333

#      iter     time        total  log10-change:
#                          energy   eigst   dens
# iter:   1 04:01:07   -14.953320                  +2.6,+0.0,+0.0
# iter:   2 04:01:27   -15.651040   +0.18  -1.41   +2.6,+0.0,-0.0
# iter:   3 04:01:48   -15.627682   -0.69  -1.44   +2.6,+0.0,-0.0
# iter:   4 04:02:09   -15.644561   -1.24  -1.54   +2.6,+0.0,-0.0
# iter:   5 04:02:30   -15.717411   -1.46  -1.66   +2.6,-0.0,+0.0
# iter:   6 04:02:50   -15.681525   -2.27  -2.03   +2.6,-0.0,+0.0
# iter:   7 04:03:11   -15.676979   -2.39  -2.21   +2.6,-0.0,+0.0
# iter:   8 04:03:32   -15.674232c  -3.15  -2.41   +2.6,-0.0,+0.0
# iter:   9 04:03:52   -15.676011c  -3.17  -2.81   +2.6,-0.0,+0.0
# iter:  10 04:04:13   -15.674436c  -3.50  -2.65   +2.6,-0.0,+0.0
# iter:  11 04:04:33   -15.674314c  -4.13  -3.19   +2.6,-0.0,+0.0
# iter:  12 04:04:54   -15.674291c  -4.45  -3.46   +2.6,-0.0,+0.0
# iter:  13 04:05:14   -15.674300c  -4.76  -3.63   +2.6,-0.0,+0.0
# iter:  14 04:05:34   -15.674303c  -5.01  -3.73   +2.6,-0.0,+0.0
# iter:  15 04:05:55   -15.674298c  -5.25  -3.81   +2.6,-0.0,+0.0
# iter:  16 04:06:15   -15.674295c  -5.49  -3.89   +2.6,-0.0,+0.0
# iter:  17 04:06:36   -15.674291c  -5.71  -4.01c  +2.6,-0.0,+0.0
# iter:  18 04:06:56   -15.674285c  -5.87  -4.17c  +2.6,-0.0,+0.0
# iter:  19 04:07:16   -15.674284c  -6.18  -4.32c  +2.6,-0.0,+0.0
# iter:  20 04:07:37   -15.674284c  -6.45  -4.38c  +2.6,-0.0,+0.0
# iter:  21 04:07:57   -15.674284c  -6.72  -4.61c  +2.6,-0.0,+0.0
# iter:  22 04:08:18   -15.674285c  -6.93  -4.63c  +2.6,-0.0,+0.0
# iter:  23 04:08:38   -15.674286c  -7.11  -4.75c  +2.6,-0.0,+0.0
# iter:  24 04:08:58   -15.674286c  -7.38  -4.74c  +2.6,-0.0,+0.0
# iter:  25 04:09:19   -15.674286c  -7.43c -4.86c  +2.6,-0.0,+0.0
scf_steps: 25
energies:  # eV
  coulomb:          -5.337994
  zero:              0.041101
  xc:              -16.390240
  external:          0.000000
  kinetic:           6.016205
  spinorbit:         0.000000
  entropy:          -0.006716
  total:           -15.677644
  extrapolated:    -15.674286

dipole moment: [-4.584295, -7.940037, -7.638002]  # |e|*Ang

total magnetic moment: [2.597984, -0.000168, 0.000000]

local magnetic moments: [
  [ 2.525860, -0.000007,  0.000000],  # V  0
  [ 0.000679,  0.001658,  0.000000],  # Br 1
  [ 0.000802,  0.001602, -0.000000]]  # Br 2


Fermi level: -0.650 eV

kpt = [-0.417, -0.417, 0.000], weight = 0.007:
  Band      eig [eV]   occ [0-1]
     0       -65.401       1.000
   ...
    19        -5.176       1.000
    20        -5.135       1.000
    21        -4.965       1.000
    22        -4.886       1.000
    23        -4.684       1.000
    24        -1.462       1.000
    25        -1.310       0.999
    26        -1.219       0.997
    27        -0.044       0.002
    28         0.087       0.001
    29         0.827       0.000
    30         0.869       0.000
    31         0.971       0.000
    32         1.480       0.000
    33         1.522       0.000
    34         3.557       0.000
   ...
    41         6.168       0.000

kpt = [-0.417, -0.333, 0.000], weight = 0.007:
  Band      eig [eV]   occ [0-1]
     0       -65.401       1.000
   ...
    19        -5.129       1.000
    20        -5.013       1.000
    21        -4.929       1.000
    22        -4.807       1.000
    23        -4.497       1.000
    24        -1.549       1.000
    25        -1.366       0.999
    26        -1.238       0.997
    27        -0.072       0.003
    28         0.107       0.001
    29         0.728       0.000
    30         0.898       0.000
    31         0.964       0.000
    32         1.458       0.000
    33         1.540       0.000
    34         3.214       0.000
   ...
    41         5.581       0.000

kpt = [-0.417, -0.250, 0.000], weight = 0.007:
  Band      eig [eV]   occ [0-1]
     0       -65.401       1.000
   ...
    19        -5.085       1.000
    20        -4.872       1.000
    21        -4.694       1.000
    22        -4.684       1.000
    23        -4.338       1.000
    24        -1.594       1.000
    25        -1.456       1.000
    26        -1.206       0.996
    27        -0.054       0.003
    28         0.072       0.001
    29         0.627       0.000
    30         0.833       0.000
    31         1.020       0.000
    32         1.415       0.000
    33         1.492       0.000
    34         3.096       0.000
   ...
    41         5.327       0.000
(only showing first 3 out of 144 k-points)

Gap: 0.900 eV
Transition (v -> c):
  (s=0, k=137, n=26, [0.50, -0.00, 0.00]) -> (s=0, k=115, n=27, [0.33, 0.17, 0.00])
# Writing to Band/gsq-59.gpw (mode='')

---

timing:  # [seconds]
  Total: 526.553  # ━━━━━━━━━━━━━━━━━━━━━━━━━━━━━━━━━━━━━━━━━━━━━━━━━━━━━━━━━
  Init:   14.547  # ━╸
  SCF:   511.515  # ━━━━━━━━━━━━━━━━━━━━━━━━━━━━━━━━━━━━━━━━━━━━━━━━━━━━━━━╸

Max RSS: 1350.840  # MiB
