#  __  _  _
# | _ |_)|_||  |
# |__||  | ||/\| - 24.1.0

User:   s194113@n-62-28-20
Date:   Thu Apr 25 23:57:41 2024
Arch:   x86_64
Pid:    31927
CWD:    /work3/s194113/10302/10302_NM/VBr2
Python: 3.8.5
gpaw:   /zhome/87/8/147075/venv-name/gpaw/gpaw (10808453a8)
_gpaw:  /zhome/87/8/147075/venv-name/gpaw/
        _gpaw.cpython-38-x86_64-linux-gnu.so (10808453a8)
ase:    /zhome/87/8/147075/venv-name/ase/ase (version 3.23.0b1-c36115a2db)
numpy:  /zhome/87/8/147075/venv-name/lib/python3.8/site-packages/numpy (version 1.24.4)
scipy:  /zhome/87/8/147075/venv-name/lib/python3.8/site-packages/scipy (version 1.10.1)
libxc:  4.3.4
units:  Angstrom and eV
cores: 12
OpenMP: False
OMP_NUM_THREADS: 1

---
input parameters:
  kpts: 
    density: 6.0
    gamma: True
  magmoms: [[2.64162512, 0, 0], [-0.02514574, 0, 0], [-0.02514574, 0, 0]]
  mixer: 
    backend: 'pulay'
    beta: 0.05
    method: 'sum'
    nmaxold: 5
    weight: 100
  mode: 
    name: 'pw'
    ecut: 600
    qspiral: array([0.43055556, 0.        , 0.        ])
  parallel: 
    kpt: None
    domain: 1
    band: 1
    order: 'kdb'
    stridebands: False
    augment_grids: False
    sl_auto: False
    sl_default: None
    sl_diagonalize: None
    sl_inverse_cholesky: None
    sl_lcao: None
    sl_lrtddft: None
    use_elpa: False
    elpasolver: '2stage'
    buffer_size: None
    gpu: False
  symmetry: 
    point_group: False
    time_reversal: False
  xc: 
    name: 'LDA'

#                        
#                        
#                        
#                        
#              Br        
#                        
#                        
#        V Br            
#                        
#                        
#                        
#                        
#                        

atoms: [  # symbols, positions [Ang] and initial magnetic moments
  [  V, [   0.000000,    0.000000,    7.448555], [ 2.642,  0.000,  0.000]], # 0
  [ Br, [   1.920224,    1.108642,    8.897111], [-0.025,  0.000,  0.000]], # 1
  [ Br, [   0.000000,    2.217284,    6.000000], [-0.025,  0.000,  0.000]]] # 2

cell: [  # Ang
#     x            y            z
  [   3.840448,    0.000000,    0.000000],
  [  -1.920224,    3.325925,    0.000000],
  [   0.000000,    0.000000,   14.897111]]

periodic: [True      , True      , False     ]
lengths:  [  3.840448,   3.840448,  14.897111]  # Ang
angles:   [ 90.000000,  90.000000, 120.000000]

symmetry:
  number of symmetries: 1
  rotations: [
    [[ 1,  0,  0], [ 0,  1,  0], [ 0,  0,  1]]]

bz sampling:
  number of bz points: 144
  number of ibz points: 144
  monkhorst-pack size: [12, 12, 1]
  monkhorst-pack shift: [0.041666666666666664, 0.041666666666666664, 0.0]
  points and weights: [
    [[ -0.41666667,  -0.41666667,   0.00000000], 0.00694444],  # 0
    [[ -0.41666667,  -0.33333333,   0.00000000], 0.00694444],  # 1
    [[ -0.41666667,  -0.25000000,   0.00000000], 0.00694444],  # 2
    [[ -0.41666667,  -0.16666667,   0.00000000], 0.00694444],  # 3
    [[ -0.41666667,  -0.08333333,   0.00000000], 0.00694444],  # 4
    [[ -0.41666667,  -0.00000000,   0.00000000], 0.00694444],  # 5
    [[ -0.41666667,   0.08333333,   0.00000000], 0.00694444],  # 6
    [[ -0.41666667,   0.16666667,   0.00000000], 0.00694444],  # 7
    [[ -0.41666667,   0.25000000,   0.00000000], 0.00694444],  # 8
    [[ -0.41666667,   0.33333333,   0.00000000], 0.00694444],  # 9
    # ...
    [[  0.50000000,   0.50000000,   0.00000000], 0.00694444]]  # 143

plane wave coefficients: 6385
cutoff: 600.0 eV

spin-components: 4  # (non-collinear spins)
bands: 42
valence electrons: 27.0
spin-degeneracy: 1
dtype: complex128

memory:
    wave functions: 1_232_437_248  # bytes  (102_703_104 per core)

parallelization:
    kpt:    12
    domain: 1
    band:   1

density:
  components: 4
  grid points: [24 24 90]
  charge: 0.0  # |e|

potential:
  grid points: [24 24 90]

species:
  V:
    name: Vanadium
    id: 7939ce69e6bb5930668dfcf9bb1979c3
    Z: 23.0
    valence: 13
    core: 10
    charge: 0.0
    file: /zhome/86/d/1666/PAW/gpaw-setups-0.9.20000/V.LDA.gz
    compensation charges: {type: gauss,
                           rc: 0.37,
                           lmax: 2}
    cutoffs: {filter: 2.14,
              core: 0.96}
    valence states:
      #              energy  rcut
      - 3s(2.00)   -69.819   1.254
      - 4s(2.00)    -4.846   1.254
      - 3p(6.00)   -43.961   1.281
      - 4p(0.00)    -1.526   1.281
      - 3d(3.00)    -5.381   1.169
      -  d          21.830   1.169
  
    # Using partial waves for V as LCAO basis

  Br:
    name: Bromine
    id: 10a25bbcb3273ec7d8d7f6fc01d2618d
    Z: 35.0
    valence: 7
    core: 28
    charge: 0.0
    file: /zhome/86/d/1666/PAW/gpaw-setups-0.9.20000/Br.LDA.gz
    compensation charges: {type: gauss,
                           rc: 0.35,
                           lmax: 2}
    cutoffs: {filter: 1.98,
              core: 2.38}
    valence states:
      #              energy  rcut
      - 4s(2.00)   -20.306   1.111
      - 4p(5.00)    -8.003   1.111
      -  s           6.906   1.111
      -  p          19.208   1.111
      -  d           0.000   1.111
  
    # Using partial waves for Br as LCAO basis

Reference energy: -167392.690611  # eV

eigensolver:
  name: 'Davidson'
  niter: 2
  converge_bands: 'occupied'
Density mixing:
  Method: sum
  Backend: pulay
  Linear mixing parameter: 0.05
  old densities: 5
  Damping of long wavelength oscillations: 100
occupation numbers:
  Fermi-Dirac:
    width: 0.1000  # eV
  

poisson solver:
  ecut: 4800.0  # eV

xc functional:
  name: None

convergence criteria:
- Maximum [total energy] change in last 3 cyles: 0.0005 eV / valence electron
- Maximum integral of absolute [dens]ity change: 0.0001 electrons / valence electron
- Maximum integral of absolute [eigenst]ate change: 4e-08 eV^2 / valence electron
maximum number of iterations: 333

#      iter     time        total  log10-change:
#                          energy   eigst   dens
# iter:   1 23:58:15   -15.302443                  +2.6,+0.0,+0.0
# iter:   2 23:58:36   -15.691461   -0.02  -1.41   +2.6,+0.0,+0.0
# iter:   3 23:58:56   -15.618488   -0.86  -1.44   +2.6,+0.0,+0.0
# iter:   4 23:59:17   -15.638514   -1.35  -1.55   +2.7,+0.0,-0.0
# iter:   5 23:59:38   -15.692066   -1.68  -1.66   +2.7,-0.0,-0.0
# iter:   6 23:59:58   -15.674102   -2.43  -2.10   +2.7,-0.0,+0.0
# iter:   7 00:00:19   -15.669842   -2.41  -2.21   +2.7,-0.0,-0.0
# iter:   8 00:00:39   -15.666674c  -3.26  -2.48   +2.7,-0.0,-0.0
# iter:   9 00:01:00   -15.667798c  -3.36  -2.84   +2.7,-0.0,+0.0
# iter:  10 00:01:20   -15.667022c  -3.86  -2.69   +2.7,-0.0,-0.0
# iter:  11 00:01:41   -15.666693c  -4.13  -3.13   +2.7,-0.0,+0.0
# iter:  12 00:02:01   -15.666692c  -4.65  -3.67   +2.7,-0.0,+0.0
# iter:  13 00:02:22   -15.666687c  -4.92  -3.71   +2.7,-0.0,+0.0
# iter:  14 00:02:42   -15.666673c  -5.00  -3.71   +2.7,-0.0,-0.0
# iter:  15 00:03:02   -15.666696c  -5.36  -4.01c  +2.7,-0.0,-0.0
# iter:  16 00:03:23   -15.666690c  -5.62  -4.00   +2.7,-0.0,-0.0
# iter:  17 00:03:43   -15.666689c  -5.87  -4.60c  +2.7,-0.0,-0.0
# iter:  18 00:04:04   -15.666689c  -6.21  -4.94c  +2.7,-0.0,+0.0
# iter:  19 00:04:24   -15.666689c  -6.47  -4.99c  +2.7,-0.0,+0.0
# iter:  20 00:04:44   -15.666689c  -6.70  -5.09c  +2.7,-0.0,+0.0
# iter:  21 00:05:05   -15.666690c  -6.95  -5.18c  +2.7,-0.0,+0.0
# iter:  22 00:05:25   -15.666690c  -7.19  -5.51c  +2.7,-0.0,+0.0
# iter:  23 00:05:46   -15.666690c  -7.39  -5.51c  +2.7,-0.0,+0.0
# iter:  24 00:06:06   -15.666690c  -7.63c -5.53c  +2.7,-0.0,+0.0
scf_steps: 24
energies:  # eV
  coulomb:          -5.501098
  zero:              0.040888
  xc:              -16.441852
  external:          0.000000
  kinetic:           6.239107
  spinorbit:         0.000000
  entropy:          -0.007468
  total:           -15.670424
  extrapolated:    -15.666690

dipole moment: [-4.530640, -8.384624, -8.457121]  # |e|*Ang

total magnetic moment: [2.712698, -0.000772, 0.000000]

local magnetic moments: [
  [ 2.541839, -0.000032,  0.000000],  # V  0
  [ 0.006082,  0.008988, -0.000000],  # Br 1
  [-0.009311,  0.005576, -0.000000]]  # Br 2


Fermi level: -0.656 eV

kpt = [-0.417, -0.417, 0.000], weight = 0.007:
  Band      eig [eV]   occ [0-1]
     0       -65.387       1.000
   ...
    19        -5.152       1.000
    20        -4.965       1.000
    21        -4.896       1.000
    22        -4.811       1.000
    23        -4.597       1.000
    24        -1.585       1.000
    25        -1.326       0.999
    26        -1.174       0.994
    27        -0.026       0.002
    28         0.148       0.000
    29         0.695       0.000
    30         0.850       0.000
    31         1.104       0.000
    32         1.481       0.000
    33         1.607       0.000
    34         3.171       0.000
   ...
    41         6.008       0.000

kpt = [-0.417, -0.333, 0.000], weight = 0.007:
  Band      eig [eV]   occ [0-1]
     0       -65.387       1.000
   ...
    19        -5.128       1.000
    20        -5.089       1.000
    21        -4.769       1.000
    22        -4.705       1.000
    23        -4.469       1.000
    24        -1.541       1.000
    25        -1.332       0.999
    26        -1.213       0.996
    27        -0.119       0.005
    28         0.168       0.000
    29         0.761       0.000
    30         0.887       0.000
    31         1.020       0.000
    32         1.350       0.000
    33         1.579       0.000
    34         3.221       0.000
   ...
    41         5.877       0.000

kpt = [-0.417, -0.250, 0.000], weight = 0.007:
  Band      eig [eV]   occ [0-1]
     0       -65.387       1.000
   ...
    19        -5.256       1.000
    20        -5.056       1.000
    21        -4.776       1.000
    22        -4.529       1.000
    23        -4.360       1.000
    24        -1.415       0.999
    25        -1.328       0.999
    26        -1.282       0.998
    27        -0.150       0.006
    28         0.088       0.001
    29         0.795       0.000
    30         0.823       0.000
    31         0.955       0.000
    32         1.250       0.000
    33         1.474       0.000
    34         3.700       0.000
   ...
    41         5.575       0.000
(only showing first 3 out of 144 k-points)

Gap: 0.824 eV
Transition (v -> c):
  (s=0, k=137, n=26, [0.50, -0.00, 0.00]) -> (s=0, k=68, n=27, [-0.00, 0.25, 0.00])
# Writing to Band/gsq-31.gpw (mode='')

---

timing:  # [seconds]
  Total: 505.109  # ━━━━━━━━━━━━━━━━━━━━━━━━━━━━━━━━━━━━━━━━━━━━━━━━━━━━━━━━━
  Init:   14.492  # ━╸
  SCF:   490.128  # ━━━━━━━━━━━━━━━━━━━━━━━━━━━━━━━━━━━━━━━━━━━━━━━━━━━━━━━╸

Max RSS: 815.926  # MiB
