#  __  _  _
# | _ |_)|_||  |
# |__||  | ||/\| - 24.1.0

User:   s194113@n-62-28-20
Date:   Thu Apr 25 23:41:33 2024
Arch:   x86_64
Pid:    31927
CWD:    /work3/s194113/10302/10302_NM/VBr2
Python: 3.8.5
gpaw:   /zhome/87/8/147075/venv-name/gpaw/gpaw (10808453a8)
_gpaw:  /zhome/87/8/147075/venv-name/gpaw/
        _gpaw.cpython-38-x86_64-linux-gnu.so (10808453a8)
ase:    /zhome/87/8/147075/venv-name/ase/ase (version 3.23.0b1-c36115a2db)
numpy:  /zhome/87/8/147075/venv-name/lib/python3.8/site-packages/numpy (version 1.24.4)
scipy:  /zhome/87/8/147075/venv-name/lib/python3.8/site-packages/scipy (version 1.10.1)
libxc:  4.3.4
units:  Angstrom and eV
cores: 12
OpenMP: False
OMP_NUM_THREADS: 1

---
input parameters:
  kpts: 
    density: 6.0
    gamma: True
  magmoms: [[2.64162512, 0, 0], [-0.02514574, 0, 0], [-0.02514574, 0, 0]]
  mixer: 
    backend: 'pulay'
    beta: 0.05
    method: 'sum'
    nmaxold: 5
    weight: 100
  mode: 
    name: 'pw'
    ecut: 600
    qspiral: array([0.40277778, 0.        , 0.        ])
  parallel: 
    kpt: None
    domain: 1
    band: 1
    order: 'kdb'
    stridebands: False
    augment_grids: False
    sl_auto: False
    sl_default: None
    sl_diagonalize: None
    sl_inverse_cholesky: None
    sl_lcao: None
    sl_lrtddft: None
    use_elpa: False
    elpasolver: '2stage'
    buffer_size: None
    gpu: False
  symmetry: 
    point_group: False
    time_reversal: False
  xc: 
    name: 'LDA'

#                        
#                        
#                        
#                        
#              Br        
#                        
#                        
#        V Br            
#                        
#                        
#                        
#                        
#                        

atoms: [  # symbols, positions [Ang] and initial magnetic moments
  [  V, [   0.000000,    0.000000,    7.448555], [ 2.642,  0.000,  0.000]], # 0
  [ Br, [   1.920224,    1.108642,    8.897111], [-0.025,  0.000,  0.000]], # 1
  [ Br, [   0.000000,    2.217284,    6.000000], [-0.025,  0.000,  0.000]]] # 2

cell: [  # Ang
#     x            y            z
  [   3.840448,    0.000000,    0.000000],
  [  -1.920224,    3.325925,    0.000000],
  [   0.000000,    0.000000,   14.897111]]

periodic: [True      , True      , False     ]
lengths:  [  3.840448,   3.840448,  14.897111]  # Ang
angles:   [ 90.000000,  90.000000, 120.000000]

symmetry:
  number of symmetries: 1
  rotations: [
    [[ 1,  0,  0], [ 0,  1,  0], [ 0,  0,  1]]]

bz sampling:
  number of bz points: 144
  number of ibz points: 144
  monkhorst-pack size: [12, 12, 1]
  monkhorst-pack shift: [0.041666666666666664, 0.041666666666666664, 0.0]
  points and weights: [
    [[ -0.41666667,  -0.41666667,   0.00000000], 0.00694444],  # 0
    [[ -0.41666667,  -0.33333333,   0.00000000], 0.00694444],  # 1
    [[ -0.41666667,  -0.25000000,   0.00000000], 0.00694444],  # 2
    [[ -0.41666667,  -0.16666667,   0.00000000], 0.00694444],  # 3
    [[ -0.41666667,  -0.08333333,   0.00000000], 0.00694444],  # 4
    [[ -0.41666667,  -0.00000000,   0.00000000], 0.00694444],  # 5
    [[ -0.41666667,   0.08333333,   0.00000000], 0.00694444],  # 6
    [[ -0.41666667,   0.16666667,   0.00000000], 0.00694444],  # 7
    [[ -0.41666667,   0.25000000,   0.00000000], 0.00694444],  # 8
    [[ -0.41666667,   0.33333333,   0.00000000], 0.00694444],  # 9
    # ...
    [[  0.50000000,   0.50000000,   0.00000000], 0.00694444]]  # 143

plane wave coefficients: 6385
cutoff: 600.0 eV

spin-components: 4  # (non-collinear spins)
bands: 42
valence electrons: 27.0
spin-degeneracy: 1
dtype: complex128

memory:
    wave functions: 1_232_437_248  # bytes  (102_703_104 per core)

parallelization:
    kpt:    12
    domain: 1
    band:   1

density:
  components: 4
  grid points: [24 24 90]
  charge: 0.0  # |e|

potential:
  grid points: [24 24 90]

species:
  V:
    name: Vanadium
    id: 7939ce69e6bb5930668dfcf9bb1979c3
    Z: 23.0
    valence: 13
    core: 10
    charge: 0.0
    file: /zhome/86/d/1666/PAW/gpaw-setups-0.9.20000/V.LDA.gz
    compensation charges: {type: gauss,
                           rc: 0.37,
                           lmax: 2}
    cutoffs: {filter: 2.14,
              core: 0.96}
    valence states:
      #              energy  rcut
      - 3s(2.00)   -69.819   1.254
      - 4s(2.00)    -4.846   1.254
      - 3p(6.00)   -43.961   1.281
      - 4p(0.00)    -1.526   1.281
      - 3d(3.00)    -5.381   1.169
      -  d          21.830   1.169
  
    # Using partial waves for V as LCAO basis

  Br:
    name: Bromine
    id: 10a25bbcb3273ec7d8d7f6fc01d2618d
    Z: 35.0
    valence: 7
    core: 28
    charge: 0.0
    file: /zhome/86/d/1666/PAW/gpaw-setups-0.9.20000/Br.LDA.gz
    compensation charges: {type: gauss,
                           rc: 0.35,
                           lmax: 2}
    cutoffs: {filter: 1.98,
              core: 2.38}
    valence states:
      #              energy  rcut
      - 4s(2.00)   -20.306   1.111
      - 4p(5.00)    -8.003   1.111
      -  s           6.906   1.111
      -  p          19.208   1.111
      -  d           0.000   1.111
  
    # Using partial waves for Br as LCAO basis

Reference energy: -167392.690611  # eV

eigensolver:
  name: 'Davidson'
  niter: 2
  converge_bands: 'occupied'
Density mixing:
  Method: sum
  Backend: pulay
  Linear mixing parameter: 0.05
  old densities: 5
  Damping of long wavelength oscillations: 100
occupation numbers:
  Fermi-Dirac:
    width: 0.1000  # eV
  

poisson solver:
  ecut: 4800.0  # eV

xc functional:
  name: None

convergence criteria:
- Maximum [total energy] change in last 3 cyles: 0.0005 eV / valence electron
- Maximum integral of absolute [dens]ity change: 0.0001 electrons / valence electron
- Maximum integral of absolute [eigenst]ate change: 4e-08 eV^2 / valence electron
maximum number of iterations: 333

#      iter     time        total  log10-change:
#                          energy   eigst   dens
# iter:   1 23:42:07   -15.366496                  +2.6,+0.0,+0.0
# iter:   2 23:42:28   -15.699700   -0.06  -1.40   +2.6,+0.0,-0.0
# iter:   3 23:42:48   -15.617854   -0.89  -1.44   +2.6,+0.0,-0.0
# iter:   4 23:43:09   -15.638246   -1.37  -1.55   +2.7,-0.0,-0.0
# iter:   5 23:43:29   -15.689995   -1.71  -1.66   +2.7,-0.0,-0.0
# iter:   6 23:43:50   -15.673538   -2.46  -2.11   +2.7,-0.0,-0.0
# iter:   7 23:44:10   -15.669420   -2.41  -2.21   +2.7,-0.0,-0.0
# iter:   8 23:44:31   -15.666066c  -3.28  -2.48   +2.7,-0.0,+0.0
# iter:   9 23:44:51   -15.666736c  -3.50  -2.85   +2.7,-0.0,-0.0
# iter:  10 23:45:11   -15.666417c  -3.89  -2.76   +2.7,-0.0,-0.0
# iter:  11 23:45:32   -15.666085c  -4.20  -3.13   +2.7,-0.0,-0.0
# iter:  12 23:45:52   -15.666084c  -4.71  -3.69   +2.7,-0.0,-0.0
# iter:  13 23:46:13   -15.666085c  -4.93  -3.72   +2.7,-0.0,-0.0
# iter:  14 23:46:33   -15.666071c  -4.98  -3.69   +2.7,-0.0,-0.0
# iter:  15 23:46:53   -15.666074c  -5.48  -4.18c  +2.7,-0.0,-0.0
# iter:  16 23:47:13   -15.666075c  -5.78  -4.24c  +2.7,-0.0,-0.0
# iter:  17 23:47:33   -15.666079c  -5.97  -4.28c  +2.7,-0.0,-0.0
# iter:  18 23:47:54   -15.666080c  -6.26  -4.46c  +2.7,-0.0,-0.0
# iter:  19 23:48:14   -15.666079c  -6.53  -4.43c  +2.7,-0.0,+0.0
# iter:  20 23:48:34   -15.666079c  -6.59  -4.61c  +2.7,-0.0,+0.0
# iter:  21 23:48:55   -15.666079c  -6.99  -4.86c  +2.7,-0.0,-0.0
# iter:  22 23:49:15   -15.666079c  -7.25  -4.91c  +2.7,-0.0,-0.0
# iter:  23 23:49:35   -15.666080c  -7.43c -4.97c  +2.7,-0.0,-0.0
scf_steps: 23
energies:  # eV
  coulomb:          -5.512969
  zero:              0.040894
  xc:              -16.450343
  external:          0.000000
  kinetic:           6.260025
  spinorbit:         0.000000
  entropy:          -0.007374
  total:           -15.669767
  extrapolated:    -15.666080

dipole moment: [-4.577123, -8.427871, -8.606978]  # |e|*Ang

total magnetic moment: [2.735496, -0.001039, -0.000000]

local magnetic moments: [
  [ 2.545540, -0.000043, -0.000000],  # V  0
  [ 0.004282,  0.012090, -0.000000],  # Br 1
  [-0.010443,  0.007447,  0.000000]]  # Br 2


Fermi level: -0.648 eV

kpt = [-0.417, -0.417, 0.000], weight = 0.007:
  Band      eig [eV]   occ [0-1]
     0       -65.383       1.000
   ...
    19        -5.145       1.000
    20        -4.969       1.000
    21        -4.882       1.000
    22        -4.807       1.000
    23        -4.619       1.000
    24        -1.599       1.000
    25        -1.304       0.999
    26        -1.173       0.995
    27        -0.014       0.002
    28         0.151       0.000
    29         0.672       0.000
    30         0.885       0.000
    31         1.109       0.000
    32         1.501       0.000
    33         1.611       0.000
    34         3.133       0.000
   ...
    41         6.070       0.000

kpt = [-0.417, -0.333, 0.000], weight = 0.007:
  Band      eig [eV]   occ [0-1]
     0       -65.383       1.000
   ...
    19        -5.143       1.000
    20        -5.070       1.000
    21        -4.800       1.000
    22        -4.730       1.000
    23        -4.490       1.000
    24        -1.535       1.000
    25        -1.312       0.999
    26        -1.212       0.996
    27        -0.102       0.004
    28         0.162       0.000
    29         0.764       0.000
    30         0.914       0.000
    31         1.017       0.000
    32         1.374       0.000
    33         1.576       0.000
    34         3.246       0.000
   ...
    41         6.052       0.000

kpt = [-0.417, -0.250, 0.000], weight = 0.007:
  Band      eig [eV]   occ [0-1]
     0       -65.383       1.000
   ...
    19        -5.246       1.000
    20        -5.092       1.000
    21        -4.827       1.000
    22        -4.560       1.000
    23        -4.384       1.000
    24        -1.395       0.999
    25        -1.335       0.999
    26        -1.264       0.998
    27        -0.137       0.006
    28         0.088       0.001
    29         0.791       0.000
    30         0.846       0.000
    31         0.970       0.000
    32         1.278       0.000
    33         1.490       0.000
    34         3.761       0.000
   ...
    41         5.655       0.000
(only showing first 3 out of 144 k-points)

Gap: 0.830 eV
Transition (v -> c):
  (s=0, k=137, n=26, [0.50, -0.00, 0.00]) -> (s=0, k=68, n=27, [-0.00, 0.25, 0.00])
# Writing to Band/gsq-29.gpw (mode='')

