#  __  _  _
# | _ |_)|_||  |
# |__||  | ||/\| - 24.1.0

User:   s194113@n-62-28-20
Date:   Fri Apr 26 02:34:14 2024
Arch:   x86_64
Pid:    31927
CWD:    /work3/s194113/10302/10302_NM/VBr2
Python: 3.8.5
gpaw:   /zhome/87/8/147075/venv-name/gpaw/gpaw (10808453a8)
_gpaw:  /zhome/87/8/147075/venv-name/gpaw/
        _gpaw.cpython-38-x86_64-linux-gnu.so (10808453a8)
ase:    /zhome/87/8/147075/venv-name/ase/ase (version 3.23.0b1-c36115a2db)
numpy:  /zhome/87/8/147075/venv-name/lib/python3.8/site-packages/numpy (version 1.24.4)
scipy:  /zhome/87/8/147075/venv-name/lib/python3.8/site-packages/scipy (version 1.10.1)
libxc:  4.3.4
units:  Angstrom and eV
cores: 12
OpenMP: False
OMP_NUM_THREADS: 1

---
input parameters:
  kpts: 
    density: 6.0
    gamma: True
  magmoms: [[2.64162512, 0, 0], [-0.02514574, 0, 0], [-0.02514574, 0, 0]]
  mixer: 
    backend: 'pulay'
    beta: 0.05
    method: 'sum'
    nmaxold: 5
    weight: 100
  mode: 
    name: 'pw'
    ecut: 600
    qspiral: array([0.3968254 , 0.20634921, 0.        ])
  parallel: 
    kpt: None
    domain: 1
    band: 1
    order: 'kdb'
    stridebands: False
    augment_grids: False
    sl_auto: False
    sl_default: None
    sl_diagonalize: None
    sl_inverse_cholesky: None
    sl_lcao: None
    sl_lrtddft: None
    use_elpa: False
    elpasolver: '2stage'
    buffer_size: None
    gpu: False
  symmetry: 
    point_group: False
    time_reversal: False
  xc: 
    name: 'LDA'

#                        
#                        
#                        
#                        
#              Br        
#                        
#                        
#        V Br            
#                        
#                        
#                        
#                        
#                        

atoms: [  # symbols, positions [Ang] and initial magnetic moments
  [  V, [   0.000000,    0.000000,    7.448555], [ 2.642,  0.000,  0.000]], # 0
  [ Br, [   1.920224,    1.108642,    8.897111], [-0.025,  0.000,  0.000]], # 1
  [ Br, [   0.000000,    2.217284,    6.000000], [-0.025,  0.000,  0.000]]] # 2

cell: [  # Ang
#     x            y            z
  [   3.840448,    0.000000,    0.000000],
  [  -1.920224,    3.325925,    0.000000],
  [   0.000000,    0.000000,   14.897111]]

periodic: [True      , True      , False     ]
lengths:  [  3.840448,   3.840448,  14.897111]  # Ang
angles:   [ 90.000000,  90.000000, 120.000000]

symmetry:
  number of symmetries: 1
  rotations: [
    [[ 1,  0,  0], [ 0,  1,  0], [ 0,  0,  1]]]

bz sampling:
  number of bz points: 144
  number of ibz points: 144
  monkhorst-pack size: [12, 12, 1]
  monkhorst-pack shift: [0.041666666666666664, 0.041666666666666664, 0.0]
  points and weights: [
    [[ -0.41666667,  -0.41666667,   0.00000000], 0.00694444],  # 0
    [[ -0.41666667,  -0.33333333,   0.00000000], 0.00694444],  # 1
    [[ -0.41666667,  -0.25000000,   0.00000000], 0.00694444],  # 2
    [[ -0.41666667,  -0.16666667,   0.00000000], 0.00694444],  # 3
    [[ -0.41666667,  -0.08333333,   0.00000000], 0.00694444],  # 4
    [[ -0.41666667,  -0.00000000,   0.00000000], 0.00694444],  # 5
    [[ -0.41666667,   0.08333333,   0.00000000], 0.00694444],  # 6
    [[ -0.41666667,   0.16666667,   0.00000000], 0.00694444],  # 7
    [[ -0.41666667,   0.25000000,   0.00000000], 0.00694444],  # 8
    [[ -0.41666667,   0.33333333,   0.00000000], 0.00694444],  # 9
    # ...
    [[  0.50000000,   0.50000000,   0.00000000], 0.00694444]]  # 143

plane wave coefficients: 6385
cutoff: 600.0 eV

spin-components: 4  # (non-collinear spins)
bands: 42
valence electrons: 27.0
spin-degeneracy: 1
dtype: complex128

memory:
    wave functions: 1_232_437_248  # bytes  (102_703_104 per core)

parallelization:
    kpt:    12
    domain: 1
    band:   1

density:
  components: 4
  grid points: [24 24 90]
  charge: 0.0  # |e|

potential:
  grid points: [24 24 90]

species:
  V:
    name: Vanadium
    id: 7939ce69e6bb5930668dfcf9bb1979c3
    Z: 23.0
    valence: 13
    core: 10
    charge: 0.0
    file: /zhome/86/d/1666/PAW/gpaw-setups-0.9.20000/V.LDA.gz
    compensation charges: {type: gauss,
                           rc: 0.37,
                           lmax: 2}
    cutoffs: {filter: 2.14,
              core: 0.96}
    valence states:
      #              energy  rcut
      - 3s(2.00)   -69.819   1.254
      - 4s(2.00)    -4.846   1.254
      - 3p(6.00)   -43.961   1.281
      - 4p(0.00)    -1.526   1.281
      - 3d(3.00)    -5.381   1.169
      -  d          21.830   1.169
  
    # Using partial waves for V as LCAO basis

  Br:
    name: Bromine
    id: 10a25bbcb3273ec7d8d7f6fc01d2618d
    Z: 35.0
    valence: 7
    core: 28
    charge: 0.0
    file: /zhome/86/d/1666/PAW/gpaw-setups-0.9.20000/Br.LDA.gz
    compensation charges: {type: gauss,
                           rc: 0.35,
                           lmax: 2}
    cutoffs: {filter: 1.98,
              core: 2.38}
    valence states:
      #              energy  rcut
      - 4s(2.00)   -20.306   1.111
      - 4p(5.00)    -8.003   1.111
      -  s           6.906   1.111
      -  p          19.208   1.111
      -  d           0.000   1.111
  
    # Using partial waves for Br as LCAO basis

Reference energy: -167392.690611  # eV

eigensolver:
  name: 'Davidson'
  niter: 2
  converge_bands: 'occupied'
Density mixing:
  Method: sum
  Backend: pulay
  Linear mixing parameter: 0.05
  old densities: 5
  Damping of long wavelength oscillations: 100
occupation numbers:
  Fermi-Dirac:
    width: 0.1000  # eV
  

poisson solver:
  ecut: 4800.0  # eV

xc functional:
  name: None

convergence criteria:
- Maximum [total energy] change in last 3 cyles: 0.0005 eV / valence electron
- Maximum integral of absolute [dens]ity change: 0.0001 electrons / valence electron
- Maximum integral of absolute [eigenst]ate change: 4e-08 eV^2 / valence electron
maximum number of iterations: 333

#      iter     time        total  log10-change:
#                          energy   eigst   dens
# iter:   1 02:34:48   -15.021557                  +2.6,+0.0,+0.0
# iter:   2 02:35:09   -15.658730   +0.15  -1.41   +2.6,+0.0,-0.0
# iter:   3 02:35:29   -15.625130   -0.72  -1.44   +2.6,+0.0,-0.0
# iter:   4 02:35:50   -15.642904   -1.26  -1.54   +2.6,+0.0,-0.0
# iter:   5 02:36:10   -15.709605   -1.51  -1.66   +2.6,-0.0,-0.0
# iter:   6 02:36:31   -15.679293   -2.30  -2.05   +2.6,-0.0,+0.0
# iter:   7 02:36:52   -15.675146   -2.40  -2.21   +2.6,-0.0,+0.0
# iter:   8 02:37:12   -15.672280c  -3.18  -2.43   +2.6,-0.0,-0.0
# iter:   9 02:37:33   -15.674230c  -3.20  -2.82   +2.6,-0.0,+0.0
# iter:  10 02:37:53   -15.672531c  -3.54  -2.63   +2.6,-0.0,+0.0
# iter:  11 02:38:14   -15.672337c  -4.10  -3.19   +2.6,-0.0,+0.0
# iter:  12 02:38:35   -15.672336c  -4.50  -3.55   +2.6,-0.0,+0.0
# iter:  13 02:38:55   -15.672346c  -4.80  -3.64   +2.6,-0.0,+0.0
# iter:  14 02:39:15   -15.672321c  -4.80  -3.73   +2.6,-0.0,+0.0
# iter:  15 02:39:36   -15.672320c  -5.23  -3.88   +2.6,-0.0,+0.0
# iter:  16 02:39:56   -15.672324c  -5.56  -3.94   +2.6,-0.0,+0.0
# iter:  17 02:40:17   -15.672330c  -5.76  -3.97   +2.6,-0.0,+0.0
# iter:  18 02:40:37   -15.672330c  -6.02  -4.12c  +2.6,-0.0,+0.0
# iter:  19 02:40:58   -15.672330c  -6.13  -4.18c  +2.6,-0.0,+0.0
# iter:  20 02:41:18   -15.672330c  -6.45  -4.64c  +2.6,-0.0,+0.0
# iter:  21 02:41:38   -15.672331c  -6.72  -4.66c  +2.6,-0.0,+0.0
# iter:  22 02:41:59   -15.672331c  -6.92  -4.78c  +2.6,-0.0,+0.0
# iter:  23 02:42:19   -15.672331c  -7.18  -4.99c  +2.6,-0.0,+0.0
# iter:  24 02:42:40   -15.672331c  -7.40c -5.09c  +2.6,-0.0,+0.0
scf_steps: 24
energies:  # eV
  coulomb:          -5.373521
  zero:              0.040501
  xc:              -16.402672
  external:          0.000000
  kinetic:           6.066806
  spinorbit:         0.000000
  entropy:          -0.006887
  total:           -15.675774
  extrapolated:    -15.672331

dipole moment: [-4.502400, -8.057513, -7.815551]  # |e|*Ang

total magnetic moment: [2.620223, -0.000173, 0.000000]

local magnetic moments: [
  [ 2.529685, -0.000007,  0.000000],  # V  0
  [ 0.005299,  0.000050,  0.000000],  # Br 1
  [-0.004189,  0.003237,  0.000000]]  # Br 2


Fermi level: -0.653 eV

kpt = [-0.417, -0.417, 0.000], weight = 0.007:
  Band      eig [eV]   occ [0-1]
     0       -65.398       1.000
   ...
    19        -5.148       1.000
    20        -5.104       1.000
    21        -5.044       1.000
    22        -4.790       1.000
    23        -4.724       1.000
    24        -1.486       1.000
    25        -1.319       0.999
    26        -1.207       0.996
    27        -0.039       0.002
    28         0.104       0.001
    29         0.810       0.000
    30         0.835       0.000
    31         1.022       0.000
    32         1.475       0.000
    33         1.558       0.000
    34         3.477       0.000
   ...
    41         5.975       0.000

kpt = [-0.417, -0.333, 0.000], weight = 0.007:
  Band      eig [eV]   occ [0-1]
     0       -65.398       1.000
   ...
    19        -5.176       1.000
    20        -5.029       1.000
    21        -4.874       1.000
    22        -4.664       1.000
    23        -4.523       1.000
    24        -1.554       1.000
    25        -1.320       0.999
    26        -1.255       0.998
    27        -0.108       0.004
    28         0.135       0.000
    29         0.740       0.000
    30         0.896       0.000
    31         0.963       0.000
    32         1.399       0.000
    33         1.546       0.000
    34         3.176       0.000
   ...
    41         5.786       0.000

kpt = [-0.417, -0.250, 0.000], weight = 0.007:
  Band      eig [eV]   occ [0-1]
     0       -65.398       1.000
   ...
    19        -5.131       1.000
    20        -4.836       1.000
    21        -4.726       1.000
    22        -4.530       1.000
    23        -4.333       1.000
    24        -1.564       1.000
    25        -1.376       0.999
    26        -1.246       0.997
    27        -0.091       0.004
    28         0.061       0.001
    29         0.659       0.000
    30         0.843       0.000
    31         0.970       0.000
    32         1.327       0.000
    33         1.442       0.000
    34         3.180       0.000
   ...
    41         5.190       0.000
(only showing first 3 out of 144 k-points)

Gap: 0.864 eV
Transition (v -> c):
  (s=0, k=137, n=26, [0.50, -0.00, 0.00]) -> (s=0, k=62, n=27, [-0.00, -0.25, 0.00])
# Writing to Band/gsq-49.gpw (mode='')

---

timing:  # [seconds]
  Total: 505.731  # ━━━━━━━━━━━━━━━━━━━━━━━━━━━━━━━━━━━━━━━━━━━━━━━━━━━━━━━━━
  Init:   14.490  # ━╸
  SCF:   490.752  # ━━━━━━━━━━━━━━━━━━━━━━━━━━━━━━━━━━━━━━━━━━━━━━━━━━━━━━━╸

Max RSS: 1317.359  # MiB
