#  __  _  _
# | _ |_)|_||  |
# |__||  | ||/\| - 24.1.0

User:   s194113@n-62-28-20
Date:   Fri Apr 26 03:43:04 2024
Arch:   x86_64
Pid:    31927
CWD:    /work3/s194113/10302/10302_NM/VBr2
Python: 3.8.5
gpaw:   /zhome/87/8/147075/venv-name/gpaw/gpaw (10808453a8)
_gpaw:  /zhome/87/8/147075/venv-name/gpaw/
        _gpaw.cpython-38-x86_64-linux-gnu.so (10808453a8)
ase:    /zhome/87/8/147075/venv-name/ase/ase (version 3.23.0b1-c36115a2db)
numpy:  /zhome/87/8/147075/venv-name/lib/python3.8/site-packages/numpy (version 1.24.4)
scipy:  /zhome/87/8/147075/venv-name/lib/python3.8/site-packages/scipy (version 1.10.1)
libxc:  4.3.4
units:  Angstrom and eV
cores: 12
OpenMP: False
OMP_NUM_THREADS: 1

---
input parameters:
  kpts: 
    density: 6.0
    gamma: True
  magmoms: [[2.64162512, 0, 0], [-0.02514574, 0, 0], [-0.02514574, 0, 0]]
  mixer: 
    backend: 'pulay'
    beta: 0.05
    method: 'sum'
    nmaxold: 5
    weight: 100
  mode: 
    name: 'pw'
    ecut: 600
    qspiral: array([0.33333333, 0.33333333, 0.        ])
  parallel: 
    kpt: None
    domain: 1
    band: 1
    order: 'kdb'
    stridebands: False
    augment_grids: False
    sl_auto: False
    sl_default: None
    sl_diagonalize: None
    sl_inverse_cholesky: None
    sl_lcao: None
    sl_lrtddft: None
    use_elpa: False
    elpasolver: '2stage'
    buffer_size: None
    gpu: False
  symmetry: 
    point_group: False
    time_reversal: False
  xc: 
    name: 'LDA'

#                        
#                        
#                        
#                        
#              Br        
#                        
#                        
#        V Br            
#                        
#                        
#                        
#                        
#                        

atoms: [  # symbols, positions [Ang] and initial magnetic moments
  [  V, [   0.000000,    0.000000,    7.448555], [ 2.642,  0.000,  0.000]], # 0
  [ Br, [   1.920224,    1.108642,    8.897111], [-0.025,  0.000,  0.000]], # 1
  [ Br, [   0.000000,    2.217284,    6.000000], [-0.025,  0.000,  0.000]]] # 2

cell: [  # Ang
#     x            y            z
  [   3.840448,    0.000000,    0.000000],
  [  -1.920224,    3.325925,    0.000000],
  [   0.000000,    0.000000,   14.897111]]

periodic: [True      , True      , False     ]
lengths:  [  3.840448,   3.840448,  14.897111]  # Ang
angles:   [ 90.000000,  90.000000, 120.000000]

symmetry:
  number of symmetries: 1
  rotations: [
    [[ 1,  0,  0], [ 0,  1,  0], [ 0,  0,  1]]]

bz sampling:
  number of bz points: 144
  number of ibz points: 144
  monkhorst-pack size: [12, 12, 1]
  monkhorst-pack shift: [0.041666666666666664, 0.041666666666666664, 0.0]
  points and weights: [
    [[ -0.41666667,  -0.41666667,   0.00000000], 0.00694444],  # 0
    [[ -0.41666667,  -0.33333333,   0.00000000], 0.00694444],  # 1
    [[ -0.41666667,  -0.25000000,   0.00000000], 0.00694444],  # 2
    [[ -0.41666667,  -0.16666667,   0.00000000], 0.00694444],  # 3
    [[ -0.41666667,  -0.08333333,   0.00000000], 0.00694444],  # 4
    [[ -0.41666667,  -0.00000000,   0.00000000], 0.00694444],  # 5
    [[ -0.41666667,   0.08333333,   0.00000000], 0.00694444],  # 6
    [[ -0.41666667,   0.16666667,   0.00000000], 0.00694444],  # 7
    [[ -0.41666667,   0.25000000,   0.00000000], 0.00694444],  # 8
    [[ -0.41666667,   0.33333333,   0.00000000], 0.00694444],  # 9
    # ...
    [[  0.50000000,   0.50000000,   0.00000000], 0.00694444]]  # 143

plane wave coefficients: 6385
cutoff: 600.0 eV

spin-components: 4  # (non-collinear spins)
bands: 42
valence electrons: 27.0
spin-degeneracy: 1
dtype: complex128

memory:
    wave functions: 1_232_437_248  # bytes  (102_703_104 per core)

parallelization:
    kpt:    12
    domain: 1
    band:   1

density:
  components: 4
  grid points: [24 24 90]
  charge: 0.0  # |e|

potential:
  grid points: [24 24 90]

species:
  V:
    name: Vanadium
    id: 7939ce69e6bb5930668dfcf9bb1979c3
    Z: 23.0
    valence: 13
    core: 10
    charge: 0.0
    file: /zhome/86/d/1666/PAW/gpaw-setups-0.9.20000/V.LDA.gz
    compensation charges: {type: gauss,
                           rc: 0.37,
                           lmax: 2}
    cutoffs: {filter: 2.14,
              core: 0.96}
    valence states:
      #              energy  rcut
      - 3s(2.00)   -69.819   1.254
      - 4s(2.00)    -4.846   1.254
      - 3p(6.00)   -43.961   1.281
      - 4p(0.00)    -1.526   1.281
      - 3d(3.00)    -5.381   1.169
      -  d          21.830   1.169
  
    # Using partial waves for V as LCAO basis

  Br:
    name: Bromine
    id: 10a25bbcb3273ec7d8d7f6fc01d2618d
    Z: 35.0
    valence: 7
    core: 28
    charge: 0.0
    file: /zhome/86/d/1666/PAW/gpaw-setups-0.9.20000/Br.LDA.gz
    compensation charges: {type: gauss,
                           rc: 0.35,
                           lmax: 2}
    cutoffs: {filter: 1.98,
              core: 2.38}
    valence states:
      #              energy  rcut
      - 4s(2.00)   -20.306   1.111
      - 4p(5.00)    -8.003   1.111
      -  s           6.906   1.111
      -  p          19.208   1.111
      -  d           0.000   1.111
  
    # Using partial waves for Br as LCAO basis

Reference energy: -167392.690611  # eV

eigensolver:
  name: 'Davidson'
  niter: 2
  converge_bands: 'occupied'
Density mixing:
  Method: sum
  Backend: pulay
  Linear mixing parameter: 0.05
  old densities: 5
  Damping of long wavelength oscillations: 100
occupation numbers:
  Fermi-Dirac:
    width: 0.1000  # eV
  

poisson solver:
  ecut: 4800.0  # eV

xc functional:
  name: None

convergence criteria:
- Maximum [total energy] change in last 3 cyles: 0.0005 eV / valence electron
- Maximum integral of absolute [dens]ity change: 0.0001 electrons / valence electron
- Maximum integral of absolute [eigenst]ate change: 4e-08 eV^2 / valence electron
maximum number of iterations: 333

#      iter     time        total  log10-change:
#                          energy   eigst   dens
# iter:   1 03:43:38   -14.856258                  +2.6,+0.0,+0.0
# iter:   2 03:43:58   -15.637402   +0.22  -1.41   +2.5,+0.0,-0.0
# iter:   3 03:44:19   -15.628026   -0.65  -1.44   +2.5,+0.0,-0.0
# iter:   4 03:44:39   -15.644351   -1.21  -1.54   +2.6,+0.0,+0.0
# iter:   5 03:45:00   -15.721272   -1.42  -1.66   +2.6,+0.0,+0.0
# iter:   6 03:45:21   -15.681354   -2.23  -2.02   +2.6,-0.0,+0.0
# iter:   7 03:45:41   -15.677074   -2.39  -2.21   +2.6,-0.0,-0.0
# iter:   8 03:46:02   -15.674349c  -3.12  -2.41   +2.6,-0.0,+0.0
# iter:   9 03:46:22   -15.676080c  -3.16  -2.81   +2.6,-0.0,+0.0
# iter:  10 03:46:43   -15.674492c  -3.42  -2.66   +2.6,-0.0,+0.0
# iter:  11 03:47:03   -15.674460c  -4.11  -3.15   +2.6,-0.0,+0.0
# iter:  12 03:47:24   -15.674436c  -4.39  -3.42   +2.6,-0.0,+0.0
# iter:  13 03:47:44   -15.674420c  -4.65  -3.61   +2.6,-0.0,-0.0
# iter:  14 03:48:04   -15.674412c  -4.87  -3.70   +2.6,+0.0,+0.0
# iter:  15 03:48:25   -15.674412c  -5.18  -3.90   +2.6,+0.0,+0.0
# iter:  16 03:48:45   -15.674406c  -5.38  -3.93   +2.6,+0.0,+0.0
# iter:  17 03:49:05   -15.674406c  -5.66  -4.12c  +2.6,+0.0,+0.0
# iter:  18 03:49:26   -15.674406c  -5.95  -4.76c  +2.6,+0.0,+0.0
# iter:  19 03:49:46   -15.674406c  -6.18  -4.92c  +2.6,+0.0,+0.0
# iter:  20 03:50:07   -15.674406c  -6.42  -4.94c  +2.6,+0.0,+0.0
# iter:  21 03:50:27   -15.674407c  -6.62  -4.99c  +2.6,+0.0,+0.0
# iter:  22 03:50:47   -15.674407c  -6.86  -5.05c  +2.6,+0.0,+0.0
# iter:  23 03:51:08   -15.674407c  -7.07  -5.17c  +2.6,+0.0,-0.0
# iter:  24 03:51:28   -15.674407c  -7.29  -5.20c  +2.6,+0.0,-0.0
# iter:  25 03:51:49   -15.674407c  -7.48c -5.31c  +2.6,+0.0,-0.0
scf_steps: 25
energies:  # eV
  coulomb:          -5.338331
  zero:              0.040682
  xc:              -16.389908
  external:          0.000000
  kinetic:           6.016505
  spinorbit:         0.000000
  entropy:          -0.006711
  total:           -15.677762
  extrapolated:    -15.674407

dipole moment: [-4.551268, -7.882788, -7.457831]  # |e|*Ang

total magnetic moment: [2.573710, 0.000003, -0.000000]

local magnetic moments: [
  [ 2.525535, -0.000000, -0.000000],  # V  0
  [-0.000036,  0.000064,  0.000000],  # Br 1
  [ 0.000076, -0.000001,  0.000000]]  # Br 2


Fermi level: -0.650 eV

kpt = [-0.417, -0.417, 0.000], weight = 0.007:
  Band      eig [eV]   occ [0-1]
     0       -65.401       1.000
   ...
    19        -5.204       1.000
    20        -5.128       1.000
    21        -4.969       1.000
    22        -4.884       1.000
    23        -4.649       1.000
    24        -1.441       1.000
    25        -1.315       0.999
    26        -1.222       0.997
    27        -0.045       0.002
    28         0.075       0.001
    29         0.846       0.000
    30         0.857       0.000
    31         0.958       0.000
    32         1.467       0.000
    33         1.510       0.000
    34         3.636       0.000
   ...
    41         6.153       0.000

kpt = [-0.417, -0.333, 0.000], weight = 0.007:
  Band      eig [eV]   occ [0-1]
     0       -65.401       1.000
   ...
    19        -5.134       1.000
    20        -5.020       1.000
    21        -4.906       1.000
    22        -4.803       1.000
    23        -4.460       1.000
    24        -1.530       1.000
    25        -1.371       0.999
    26        -1.242       0.997
    27        -0.065       0.003
    28         0.086       0.001
    29         0.727       0.000
    30         0.895       0.000
    31         0.953       0.000
    32         1.445       0.000
    33         1.521       0.000
    34         3.267       0.000
   ...
    41         5.605       0.000

kpt = [-0.417, -0.250, 0.000], weight = 0.007:
  Band      eig [eV]   occ [0-1]
     0       -65.401       1.000
   ...
    19        -5.078       1.000
    20        -4.866       1.000
    21        -4.689       1.000
    22        -4.644       1.000
    23        -4.307       1.000
    24        -1.603       1.000
    25        -1.455       1.000
    26        -1.207       0.996
    27        -0.065       0.003
    28         0.076       0.001
    29         0.610       0.000
    30         0.835       0.000
    31         1.016       0.000
    32         1.396       0.000
    33         1.496       0.000
    34         3.088       0.000
   ...
    41         5.322       0.000
(only showing first 3 out of 144 k-points)

Gap: 0.905 eV
Transition (v -> c):
  (s=0, k=137, n=26, [0.50, -0.00, 0.00]) -> (s=0, k=67, n=27, [-0.00, 0.17, 0.00])
# Writing to Band/gsq-57.gpw (mode='')

---

timing:  # [seconds]
  Total: 525.216  # ━━━━━━━━━━━━━━━━━━━━━━━━━━━━━━━━━━━━━━━━━━━━━━━━━━━━━━━━━
  Init:   14.521  # ━╸
  SCF:   510.384  # ━━━━━━━━━━━━━━━━━━━━━━━━━━━━━━━━━━━━━━━━━━━━━━━━━━━━━━━╸

Max RSS: 1344.094  # MiB
