#  __  _  _
# | _ |_)|_||  |
# |__||  | ||/\| - 24.1.0

User:   s194113@n-62-29-29
Date:   Wed Apr 17 13:19:18 2024
Arch:   x86_64
Pid:    26147
CWD:    /zhome/87/8/147075/10302/10302_NM/Tutorial
Python: 3.8.5
gpaw:   /zhome/87/8/147075/venv-name/gpaw/gpaw (10808453a8)
_gpaw:  /zhome/87/8/147075/venv-name/gpaw/
        _gpaw.cpython-38-x86_64-linux-gnu.so (10808453a8)
ase:    /zhome/87/8/147075/venv-name/ase/ase (version 3.23.0b1-c36115a2db)
numpy:  /zhome/87/8/147075/venv-name/lib/python3.8/site-packages/numpy (version 1.24.4)
scipy:  /zhome/87/8/147075/venv-name/lib/python3.8/site-packages/scipy (version 1.10.1)
libxc:  4.3.4
units:  Angstrom and eV
cores: 12
OpenMP: False
OMP_NUM_THREADS: 1

---
input parameters:
  kpts: 
    density: 6.0
    gamma: True
  magmoms: [[1, 0, 0], [0, 0, 0], [0, 0, 0]]
  mixer: 
    backend: 'pulay'
    beta: 0.05
    method: 'sum'
    nmaxold: 5
    weight: 100
  mode: 
    name: 'pw'
    ecut: 600
    qspiral: array([0.15, 0.  , 0.  ])
  parallel: 
    kpt: None
    domain: 1
    band: 1
    order: 'kdb'
    stridebands: False
    augment_grids: False
    sl_auto: False
    sl_default: None
    sl_diagonalize: None
    sl_inverse_cholesky: None
    sl_lcao: None
    sl_lrtddft: None
    use_elpa: False
    elpasolver: '2stage'
    buffer_size: None
    gpu: False
  symmetry: 
    point_group: False
    time_reversal: False
  xc: 
    name: 'LDA'

#                        
#                        
#                        
#                        
#                        
#              I         
#                        
#        Ni              
#          I             
#                        
#                        
#                        
#                        
#                        

atoms: [  # symbols, positions [Ang] and initial magnetic moments
  [ Ni, [   0.000000,    0.000000,    5.513573], [ 1.000,  0.000,  0.000]], # 0
  [  I, [   1.984831,    1.145943,    7.027147], [ 0.000,  0.000,  0.000]], # 1
  [  I, [  -0.000000,    2.291886,    4.000000], [ 0.000,  0.000,  0.000]]] # 2

cell: [  # Ang
#     x            y            z
  [   3.969662,    0.000000,    0.000000],
  [  -1.984831,    3.437828,    0.000000],
  [   0.000000,   -0.000000,   11.027147]]

periodic: [True      , True      , False     ]
lengths:  [  3.969662,   3.969662,  11.027147]  # Ang
angles:   [ 90.000000,  90.000000, 120.000000]

symmetry:
  number of symmetries: 1
  rotations: [
    [[ 1,  0,  0], [ 0,  1,  0], [ 0,  0,  1]]]

bz sampling:
  number of bz points: 121
  number of ibz points: 121
  monkhorst-pack size: [11, 11, 1]
  monkhorst-pack shift: [0, 0, 0]
  points and weights: [
    [[ -0.45454545,  -0.45454545,   0.00000000], 0.00826446],  # 0
    [[ -0.45454545,  -0.36363636,   0.00000000], 0.00826446],  # 1
    [[ -0.45454545,  -0.27272727,   0.00000000], 0.00826446],  # 2
    [[ -0.45454545,  -0.18181818,   0.00000000], 0.00826446],  # 3
    [[ -0.45454545,  -0.09090909,   0.00000000], 0.00826446],  # 4
    [[ -0.45454545,   0.00000000,   0.00000000], 0.00826446],  # 5
    [[ -0.45454545,   0.09090909,   0.00000000], 0.00826446],  # 6
    [[ -0.45454545,   0.18181818,   0.00000000], 0.00826446],  # 7
    [[ -0.45454545,   0.27272727,   0.00000000], 0.00826446],  # 8
    [[ -0.45454545,   0.36363636,   0.00000000], 0.00826446],  # 9
    # ...
    [[  0.45454545,   0.45454545,   0.00000000], 0.00826446]]  # 120

plane wave coefficients: 5038
cutoff: 600.0 eV

spin-components: 4  # (non-collinear spins)
bands: 40
valence electrons: 30.0
spin-degeneracy: 1
dtype: complex128

memory:
    wave functions: 778_736_640  # bytes  (64_894_720 per core)

parallelization:
    kpt:    12
    domain: 1
    band:   1

density:
  components: 4
  grid points: [24 24 63]
  charge: 0.0  # |e|

potential:
  grid points: [24 24 63]

species:
  Ni:
    name: Nickel
    id: 1802175e8de9ea26d9f4394ec1a7d564
    Z: 28.0
    valence: 16
    core: 12
    charge: 0.0
    file: /zhome/86/d/1666/PAW/gpaw-setups-0.9.20000/Ni.LDA.gz
    compensation charges: {type: gauss,
                           rc: 0.36,
                           lmax: 2}
    cutoffs: {filter: 2.14,
              core: 1.98}
    valence states:
      #              energy  rcut
      - 4s(2.00)    -5.858   1.164
      - 3p(6.00)   -71.266   1.207
      - 4p(0.00)    -1.338   1.207
      - 3d(8.00)    -9.141   1.138
      -  s          21.353   1.164
      -  d          18.071   1.138
  
    # Using partial waves for Ni as LCAO basis

  I:
    name: Iodine
    id: b559721c0c096a7b4c8fc0e0f4de5cf4
    Z: 53.0
    valence: 7
    core: 46
    charge: 0.0
    file: /zhome/86/d/1666/PAW/gpaw-setups-0.9.20000/I.LDA.gz
    compensation charges: {type: gauss,
                           rc: 0.37,
                           lmax: 2}
    cutoffs: {filter: 2.06,
              core: 2.90}
    valence states:
      #              energy  rcut
      - 5s(2.00)   -17.626   1.164
      - 5p(5.00)    -7.241   1.164
      -  s           9.585   1.164
      -  p          19.970   1.164
      -  d           0.000   1.164
  
    # Using partial waves for I as LCAO basis

Reference energy: -428067.566327  # eV

eigensolver:
  name: 'Davidson'
  niter: 2
  converge_bands: 'occupied'
Density mixing:
  Method: sum
  Backend: pulay
  Linear mixing parameter: 0.05
  old densities: 5
  Damping of long wavelength oscillations: 100
occupation numbers:
  Fermi-Dirac:
    width: 0.1000  # eV
  

poisson solver:
  ecut: 4800.0  # eV

xc functional:
  name: None

convergence criteria:
- Maximum [total energy] change in last 3 cyles: 0.0005 eV / valence electron
- Maximum integral of absolute [dens]ity change: 0.0001 electrons / valence electron
- Maximum integral of absolute [eigenst]ate change: 4e-08 eV^2 / valence electron
maximum number of iterations: 333

#      iter     time        total  log10-change:
#                          energy   eigst   dens
# iter:   1 13:19:38   -13.908264                  +1.0,+0.0,+0.0
# iter:   2 13:19:50   -12.696318   -0.44  -1.31   +1.0,+0.0,+0.0
# iter:   3 13:20:02   -12.240410   -0.74  -1.45   +1.2,+0.0,-0.0
# iter:   4 13:20:14   -12.293142   -1.56  -1.68   +1.3,+0.0,-0.0
# iter:   5 13:20:27   -12.532454   -1.67  -1.66   +1.4,+0.0,-0.0
# iter:   6 13:20:39   -12.314148   -1.97  -1.76   +1.5,+0.0,-0.0
# iter:   7 13:20:51   -12.306097   -2.57  -2.16   +1.5,+0.0,+0.0
# iter:   8 13:21:02   -12.300606c  -2.74  -2.30   +1.6,+0.0,+0.0
# iter:   9 13:21:14   -12.303830c  -3.15  -2.80   +1.6,+0.0,+0.0
# iter:  10 13:21:26   -12.305525c  -3.63  -2.96   +1.6,+0.0,+0.0
# iter:  11 13:21:38   -12.306896c  -3.57  -3.08   +1.7,+0.0,+0.0
# iter:  12 13:21:50   -12.307651c  -4.18  -3.44   +1.7,+0.0,-0.0
# iter:  13 13:22:02   -12.307766c  -4.43  -3.70   +1.7,+0.0,-0.0
# iter:  14 13:22:13   -12.307912c  -4.65  -3.74   +1.7,+0.0,-0.0
# iter:  15 13:22:25   -12.308397c  -4.83  -3.78   +1.7,+0.0,-0.0
# iter:  16 13:22:37   -12.308347c  -5.06  -3.77   +1.7,+0.0,-0.0
# iter:  17 13:22:49   -12.308349c  -5.26  -3.79   +1.7,+0.0,-0.0
# iter:  18 13:23:01   -12.308376c  -5.45  -3.81   +1.7,+0.0,-0.0
# iter:  19 13:23:12   -12.308488c  -5.46  -3.86   +1.7,+0.0,-0.0
# iter:  20 13:23:24   -12.309454c  -5.29  -3.85   +1.7,+0.0,-0.0
# iter:  21 13:23:36   -12.309382c  -6.00  -4.01c  +1.7,+0.0,-0.0
# iter:  22 13:23:48   -12.309641c  -6.04  -4.02c  +1.7,+0.0,-0.0
# iter:  23 13:24:00   -12.309628c  -6.48  -4.34c  +1.7,+0.0,-0.0
# iter:  24 13:24:11   -12.309780c  -6.22  -4.39c  +1.7,+0.0,-0.0
# iter:  25 13:24:23   -12.309837c  -6.71  -4.55c  +1.7,+0.0,-0.0
# iter:  26 13:24:35   -12.309769c  -6.95  -4.73c  +1.7,+0.0,-0.0
# iter:  27 13:24:47   -12.309766c  -7.33  -4.79c  +1.7,+0.0,-0.0
# iter:  28 13:24:59   -12.309785c  -7.45c -4.84c  +1.7,+0.0,-0.0
scf_steps: 28
energies:  # eV
  coulomb:          -7.838167
  zero:              0.066169
  xc:              -14.933557
  external:          0.000000
  kinetic:          10.416517
  spinorbit:         0.000000
  entropy:          -0.041493
  total:           -12.330532
  extrapolated:    -12.309785

dipole moment: [-4.075254, -7.042585, -4.102898]  # |e|*Ang

total magnetic moment: [1.714790, 0.020185, -0.000000]

local magnetic moments: [
  [ 1.140785, -0.000000, -0.000000],  # Ni 0
  [ 0.132297, -0.097575, -0.000000],  # I  1
  [ 0.156702, -0.049678, -0.000000]]  # I  2


Fermi level: 0.335 eV

kpt = [-0.455, -0.455, 0.000], weight = 0.008:
  Band      eig [eV]   occ [0-1]
     0       -63.449       1.000
   ...
    22        -1.601       1.000
    23        -1.465       1.000
    24        -1.375       1.000
    25        -0.773       1.000
    26        -0.641       1.000
    27        -0.599       1.000
    28        -0.153       0.992
    29        -0.083       0.985
    30         0.812       0.008
    31         0.854       0.006
    32         3.109       0.000
    33         3.800       0.000
    34         5.157       0.000
    35         6.016       0.000
    36         6.131       0.000
    37         6.346       0.000
   ...
    39         6.647       0.000

kpt = [-0.455, -0.364, 0.000], weight = 0.008:
  Band      eig [eV]   occ [0-1]
     0       -63.449       1.000
   ...
    22        -1.526       1.000
    23        -1.413       1.000
    24        -1.286       1.000
    25        -0.744       1.000
    26        -0.617       1.000
    27        -0.547       1.000
    28        -0.302       0.998
    29        -0.172       0.994
    30         0.643       0.044
    31         0.779       0.012
    32         3.537       0.000
    33         4.086       0.000
    34         5.694       0.000
    35         6.176       0.000
    36         6.314       0.000
    37         6.443       0.000
   ...
    39         7.228       0.000

kpt = [-0.455, -0.273, 0.000], weight = 0.008:
  Band      eig [eV]   occ [0-1]
     0       -63.449       1.000
   ...
    22        -1.491       1.000
    23        -1.399       1.000
    24        -1.209       1.000
    25        -0.740       1.000
    26        -0.619       1.000
    27        -0.525       1.000
    28        -0.415       0.999
    29        -0.185       0.994
    30         0.500       0.161
    31         0.761       0.014
    32         4.022       0.000
    33         4.227       0.000
    34         5.783       0.000
    35         6.301       0.000
    36         6.409       0.000
    37         6.590       0.000
   ...
    39         7.449       0.000
(only showing first 3 out of 121 k-points)

No gap
# Writing to gsq-03.gpw (mode='')

---

timing:  # [seconds]
  Total: 341.464  # ━━━━━━━━━━━━━━━━━━━━━━━━━━━━━━━━━━━━━━━━━━━━━━━━━━━━━━━━━
  Init:    8.563  # ━╸
  SCF:   331.837  # ━━━━━━━━━━━━━━━━━━━━━━━━━━━━━━━━━━━━━━━━━━━━━━━━━━━━━━━╸

Max RSS: 388.074  # MiB
