#  __  _  _
# | _ |_)|_||  |
# |__||  | ||/\| - 24.1.0

User:   s194113@n-62-29-5
Date:   Sun Apr 21 17:52:16 2024
Arch:   x86_64
Pid:    5518
CWD:    /zhome/87/8/147075/10302/10302_NM/VBr2/E_con
Python: 3.8.5
gpaw:   /zhome/87/8/147075/venv-name/gpaw/gpaw (10808453a8)
_gpaw:  /zhome/87/8/147075/venv-name/gpaw/
        _gpaw.cpython-38-x86_64-linux-gnu.so (10808453a8)
ase:    /zhome/87/8/147075/venv-name/ase/ase (version 3.23.0b1-c36115a2db)
numpy:  /zhome/87/8/147075/venv-name/lib/python3.8/site-packages/numpy (version 1.24.4)
scipy:  /zhome/87/8/147075/venv-name/lib/python3.8/site-packages/scipy (version 1.10.1)
libxc:  4.3.4
units:  Angstrom and eV
cores: 12
OpenMP: False
OMP_NUM_THREADS: 1

---
input parameters:
  kpts: 
    density: 6.0
    gamma: True
  magmoms: [[1, 0, 0], [0, 0, 0], [0, 0, 0]]
  mixer: 
    backend: 'pulay'
    beta: 0.05
    method: 'sum'
    nmaxold: 5
    weight: 100
  mode: 
    name: 'pw'
    ecut: 1000
    qspiral: array([0.33333333, 0.33333333, 0.        ])
  parallel: 
    kpt: None
    domain: 1
    band: 1
    order: 'kdb'
    stridebands: False
    augment_grids: False
    sl_auto: False
    sl_default: None
    sl_diagonalize: None
    sl_inverse_cholesky: None
    sl_lcao: None
    sl_lrtddft: None
    use_elpa: False
    elpasolver: '2stage'
    buffer_size: None
    gpu: False
  symmetry: 
    point_group: False
    time_reversal: False
  xc: 
    name: 'LDA'

#                        
#                        
#                        
#                        
#                        
#              Br        
#                        
#        V               
#          Br            
#                        
#                        
#                        
#                        
#                        

atoms: [  # symbols, positions [Ang] and initial magnetic moments
  [  V, [   0.000000,    0.000000,    7.513573], [ 1.000,  0.000,  0.000]], # 0
  [ Br, [   1.920000,    1.108513,    9.027147], [ 0.000,  0.000,  0.000]], # 1
  [ Br, [  -0.000000,    2.217025,    6.000000], [ 0.000,  0.000,  0.000]]] # 2

cell: [  # Ang
#     x            y            z
  [   3.840000,    0.000000,    0.000000],
  [  -1.920000,    3.325538,    0.000000],
  [   0.000000,   -0.000000,   15.027147]]

periodic: [True      , True      , False     ]
lengths:  [  3.840000,   3.840000,  15.027147]  # Ang
angles:   [ 90.000000,  90.000000, 120.000000]

symmetry:
  number of symmetries: 1
  rotations: [
    [[ 1,  0,  0], [ 0,  1,  0], [ 0,  0,  1]]]

bz sampling:
  number of bz points: 144
  number of ibz points: 144
  monkhorst-pack size: [12, 12, 1]
  monkhorst-pack shift: [0.041666666666666664, 0.041666666666666664, 0.0]
  points and weights: [
    [[ -0.41666667,  -0.41666667,   0.00000000], 0.00694444],  # 0
    [[ -0.41666667,  -0.33333333,   0.00000000], 0.00694444],  # 1
    [[ -0.41666667,  -0.25000000,   0.00000000], 0.00694444],  # 2
    [[ -0.41666667,  -0.16666667,   0.00000000], 0.00694444],  # 3
    [[ -0.41666667,  -0.08333333,   0.00000000], 0.00694444],  # 4
    [[ -0.41666667,  -0.00000000,   0.00000000], 0.00694444],  # 5
    [[ -0.41666667,   0.08333333,   0.00000000], 0.00694444],  # 6
    [[ -0.41666667,   0.16666667,   0.00000000], 0.00694444],  # 7
    [[ -0.41666667,   0.25000000,   0.00000000], 0.00694444],  # 8
    [[ -0.41666667,   0.33333333,   0.00000000], 0.00694444],  # 9
    # ...
    [[  0.50000000,   0.50000000,   0.00000000], 0.00694444]]  # 143

plane wave coefficients: 13840
cutoff: 1000.0 eV

spin-components: 4  # (non-collinear spins)
bands: 42
valence electrons: 27.0
spin-degeneracy: 1
dtype: complex128

memory:
    wave functions: 2_673_893_376  # bytes  (222_824_448 per core)

parallelization:
    kpt:    12
    domain: 1
    band:   1

density:
  components: 4
  grid points: [ 30  30 112]
  charge: 0.0  # |e|

potential:
  grid points: [ 30  30 112]

species:
  V:
    name: Vanadium
    id: 7939ce69e6bb5930668dfcf9bb1979c3
    Z: 23.0
    valence: 13
    core: 10
    charge: 0.0
    file: /zhome/86/d/1666/PAW/gpaw-setups-0.9.20000/V.LDA.gz
    compensation charges: {type: gauss,
                           rc: 0.37,
                           lmax: 2}
    cutoffs: {filter: 2.14,
              core: 0.96}
    valence states:
      #              energy  rcut
      - 3s(2.00)   -69.819   1.254
      - 4s(2.00)    -4.846   1.254
      - 3p(6.00)   -43.961   1.281
      - 4p(0.00)    -1.526   1.281
      - 3d(3.00)    -5.381   1.169
      -  d          21.830   1.169
  
    # Using partial waves for V as LCAO basis

  Br:
    name: Bromine
    id: 10a25bbcb3273ec7d8d7f6fc01d2618d
    Z: 35.0
    valence: 7
    core: 28
    charge: 0.0
    file: /zhome/86/d/1666/PAW/gpaw-setups-0.9.20000/Br.LDA.gz
    compensation charges: {type: gauss,
                           rc: 0.35,
                           lmax: 2}
    cutoffs: {filter: 1.98,
              core: 2.38}
    valence states:
      #              energy  rcut
      - 4s(2.00)   -20.306   1.111
      - 4p(5.00)    -8.003   1.111
      -  s           6.906   1.111
      -  p          19.208   1.111
      -  d           0.000   1.111
  
    # Using partial waves for Br as LCAO basis

Reference energy: -167392.690611  # eV

eigensolver:
  name: 'Davidson'
  niter: 2
  converge_bands: 'occupied'
Density mixing:
  Method: sum
  Backend: pulay
  Linear mixing parameter: 0.05
  old densities: 5
  Damping of long wavelength oscillations: 100
occupation numbers:
  Fermi-Dirac:
    width: 0.1000  # eV
  

poisson solver:
  ecut: 8000.0  # eV

xc functional:
  name: None

convergence criteria:
- Maximum [total energy] change in last 3 cyles: 0.0005 eV / valence electron
- Maximum integral of absolute [dens]ity change: 0.0001 electrons / valence electron
- Maximum integral of absolute [eigenst]ate change: 4e-08 eV^2 / valence electron
maximum number of iterations: 333

#      iter     time        total  log10-change:
#                          energy   eigst   dens
# iter:   1 17:53:11   -14.186426                  +1.0,+0.0,+0.0
# iter:   2 17:53:46   -15.110094   +0.24  -1.43   +1.3,-0.0,+0.0
# iter:   3 17:54:20   -15.235887   -0.57  -1.46   +1.6,-0.0,-0.0
# iter:   4 17:54:55   -15.370085   -1.21  -1.54   +1.8,-0.0,-0.0
# iter:   5 17:55:29   -15.584208   -1.74  -1.67   +2.3,-0.0,+0.0
# iter:   6 17:56:04   -15.587238   -1.99  -1.97   +2.4,-0.0,+0.0
# iter:   7 17:56:38   -15.594261c  -2.28  -2.26   +2.5,-0.0,+0.0
# iter:   8 17:57:12   -15.587965c  -2.78  -2.48   +2.5,-0.0,+0.0
# iter:   9 17:57:46   -15.590552c  -3.40  -2.69   +2.6,+0.0,-0.0
# iter:  10 17:58:21   -15.590302c  -3.85  -3.12   +2.6,-0.0,+0.0
# iter:  11 17:58:55   -15.590351c  -4.17  -3.62   +2.6,-0.0,+0.0
# iter:  12 17:59:29   -15.590404c  -4.41  -3.66   +2.6,-0.0,+0.0
# iter:  13 18:00:03   -15.590417c  -4.67  -3.67   +2.6,+0.0,+0.0
# iter:  14 18:00:38   -15.590417c  -4.92  -3.95   +2.6,+0.0,+0.0
# iter:  15 18:01:12   -15.590426c  -5.17  -4.06c  +2.6,+0.0,+0.0
# iter:  16 18:01:46   -15.590422c  -5.42  -4.40c  +2.6,+0.0,+0.0
# iter:  17 18:02:21   -15.590423c  -5.68  -4.41c  +2.6,+0.0,+0.0
# iter:  18 18:02:55   -15.590423c  -5.92  -4.53c  +2.6,+0.0,+0.0
# iter:  19 18:03:29   -15.590423c  -6.13  -4.65c  +2.6,+0.0,+0.0
# iter:  20 18:04:03   -15.590423c  -6.37  -4.74c  +2.6,+0.0,+0.0
# iter:  21 18:04:37   -15.590424c  -6.59  -4.83c  +2.6,+0.0,+0.0
# iter:  22 18:05:12   -15.590424c  -6.83  -4.89c  +2.6,+0.0,+0.0
# iter:  23 18:05:46   -15.590423c  -7.05  -5.00c  +2.6,+0.0,+0.0
# iter:  24 18:06:20   -15.590423c  -7.26  -5.10c  +2.6,+0.0,+0.0
# iter:  25 18:06:54   -15.590422c  -7.44c -5.12c  +2.6,+0.0,+0.0
scf_steps: 25
energies:  # eV
  coulomb:          -2.890178
  zero:              0.061339
  xc:              -15.692262
  external:          0.000000
  kinetic:           2.934903
  spinorbit:         0.000000
  entropy:          -0.008449
  total:           -15.594647
  extrapolated:    -15.590422

dipole moment: [-4.683458, -8.112017, -7.533490]  # |e|*Ang

total magnetic moment: [2.589126, 0.000002, 0.000000]

local magnetic moments: [
  [ 2.543073, -0.000000, -0.000000],  # V  0
  [-0.000041,  0.000070,  0.000000],  # Br 1
  [ 0.000081, -0.000000, -0.000000]]  # Br 2


Fermi level: -0.767 eV

kpt = [-0.417, -0.417, 0.000], weight = 0.007:
  Band      eig [eV]   occ [0-1]
     0       -65.520       1.000
   ...
    19        -5.228       1.000
    20        -5.119       1.000
    21        -5.020       1.000
    22        -4.938       1.000
    23        -4.736       1.000
    24        -1.520       0.999
    25        -1.399       0.998
    26        -1.317       0.996
    27        -0.175       0.003
    28        -0.079       0.001
    29         0.787       0.000
    30         0.826       0.000
    31         0.885       0.000
    32         1.334       0.000
    33         1.368       0.000
    34         3.372       0.000
   ...
    41         6.116       0.000

kpt = [-0.417, -0.333, 0.000], weight = 0.007:
  Band      eig [eV]   occ [0-1]
     0       -65.520       1.000
   ...
    19        -5.103       1.000
    20        -4.994       1.000
    21        -4.885       1.000
    22        -4.846       1.000
    23        -4.565       1.000
    24        -1.632       1.000
    25        -1.458       0.999
    26        -1.328       0.996
    27        -0.192       0.003
    28        -0.067       0.001
    29         0.674       0.000
    30         0.826       0.000
    31         0.896       0.000
    32         1.311       0.000
    33         1.376       0.000
    34         3.047       0.000
   ...
    41         5.528       0.000

kpt = [-0.417, -0.250, 0.000], weight = 0.007:
  Band      eig [eV]   occ [0-1]
     0       -65.520       1.000
   ...
    19        -4.992       1.000
    20        -4.781       1.000
    21        -4.765       1.000
    22        -4.601       1.000
    23        -4.424       1.000
    24        -1.705       1.000
    25        -1.552       1.000
    26        -1.292       0.995
    27        -0.196       0.003
    28        -0.079       0.001
    29         0.552       0.000
    30         0.754       0.000
    31         0.956       0.000
    32         1.257       0.000
    33         1.349       0.000
    34         2.933       0.000
   ...
    41         5.245       0.000
(only showing first 3 out of 144 k-points)

Gap: 0.859 eV
Transition (v -> c):
  (s=0, k=137, n=26, [0.50, -0.00, 0.00]) -> (s=0, k=69, n=27, [-0.00, 0.33, 0.00])
# Writing to gsq-16.gpw (mode='')

---

timing:  # [seconds]
  Total: 879.338  # ━━━━━━━━━━━━━━━━━━━━━━━━━━━━━━━━━━━━━━━━━━━━━━━━━━━━━━━━━
  Init:   22.690  # ━╸
  SCF:   855.868  # ━━━━━━━━━━━━━━━━━━━━━━━━━━━━━━━━━━━━━━━━━━━━━━━━━━━━━━━╸

Max RSS: 928.629  # MiB

Max RSS: 819.762  # MiB
