#  __  _  _
# | _ |_)|_||  |
# |__||  | ||/\| - 24.1.0

User:   s194113@n-62-29-5
Date:   Sun Apr 21 16:37:51 2024
Arch:   x86_64
Pid:    5518
CWD:    /zhome/87/8/147075/10302/10302_NM/VBr2/E_con
Python: 3.8.5
gpaw:   /zhome/87/8/147075/venv-name/gpaw/gpaw (10808453a8)
_gpaw:  /zhome/87/8/147075/venv-name/gpaw/
        _gpaw.cpython-38-x86_64-linux-gnu.so (10808453a8)
ase:    /zhome/87/8/147075/venv-name/ase/ase (version 3.23.0b1-c36115a2db)
numpy:  /zhome/87/8/147075/venv-name/lib/python3.8/site-packages/numpy (version 1.24.4)
scipy:  /zhome/87/8/147075/venv-name/lib/python3.8/site-packages/scipy (version 1.10.1)
libxc:  4.3.4
units:  Angstrom and eV
cores: 12
OpenMP: False
OMP_NUM_THREADS: 1

---
input parameters:
  kpts: 
    density: 6.0
    gamma: True
  magmoms: [[1, 0, 0], [0, 0, 0], [0, 0, 0]]
  mixer: 
    backend: 'pulay'
    beta: 0.05
    method: 'sum'
    nmaxold: 5
    weight: 100
  mode: 
    name: 'pw'
    ecut: 1000
    qspiral: array([0.47222222, 0.05555556, 0.        ])
  parallel: 
    kpt: None
    domain: 1
    band: 1
    order: 'kdb'
    stridebands: False
    augment_grids: False
    sl_auto: False
    sl_default: None
    sl_diagonalize: None
    sl_inverse_cholesky: None
    sl_lcao: None
    sl_lrtddft: None
    use_elpa: False
    elpasolver: '2stage'
    buffer_size: None
    gpu: False
  symmetry: 
    point_group: False
    time_reversal: False
  xc: 
    name: 'LDA'

#                        
#                        
#                        
#                        
#                        
#              Br        
#                        
#        V               
#          Br            
#                        
#                        
#                        
#                        
#                        

atoms: [  # symbols, positions [Ang] and initial magnetic moments
  [  V, [   0.000000,    0.000000,    7.513573], [ 1.000,  0.000,  0.000]], # 0
  [ Br, [   1.920000,    1.108513,    9.027147], [ 0.000,  0.000,  0.000]], # 1
  [ Br, [  -0.000000,    2.217025,    6.000000], [ 0.000,  0.000,  0.000]]] # 2

cell: [  # Ang
#     x            y            z
  [   3.840000,    0.000000,    0.000000],
  [  -1.920000,    3.325538,    0.000000],
  [   0.000000,   -0.000000,   15.027147]]

periodic: [True      , True      , False     ]
lengths:  [  3.840000,   3.840000,  15.027147]  # Ang
angles:   [ 90.000000,  90.000000, 120.000000]

symmetry:
  number of symmetries: 1
  rotations: [
    [[ 1,  0,  0], [ 0,  1,  0], [ 0,  0,  1]]]

bz sampling:
  number of bz points: 144
  number of ibz points: 144
  monkhorst-pack size: [12, 12, 1]
  monkhorst-pack shift: [0.041666666666666664, 0.041666666666666664, 0.0]
  points and weights: [
    [[ -0.41666667,  -0.41666667,   0.00000000], 0.00694444],  # 0
    [[ -0.41666667,  -0.33333333,   0.00000000], 0.00694444],  # 1
    [[ -0.41666667,  -0.25000000,   0.00000000], 0.00694444],  # 2
    [[ -0.41666667,  -0.16666667,   0.00000000], 0.00694444],  # 3
    [[ -0.41666667,  -0.08333333,   0.00000000], 0.00694444],  # 4
    [[ -0.41666667,  -0.00000000,   0.00000000], 0.00694444],  # 5
    [[ -0.41666667,   0.08333333,   0.00000000], 0.00694444],  # 6
    [[ -0.41666667,   0.16666667,   0.00000000], 0.00694444],  # 7
    [[ -0.41666667,   0.25000000,   0.00000000], 0.00694444],  # 8
    [[ -0.41666667,   0.33333333,   0.00000000], 0.00694444],  # 9
    # ...
    [[  0.50000000,   0.50000000,   0.00000000], 0.00694444]]  # 143

plane wave coefficients: 13840
cutoff: 1000.0 eV

spin-components: 4  # (non-collinear spins)
bands: 42
valence electrons: 27.0
spin-degeneracy: 1
dtype: complex128

memory:
    wave functions: 2_673_893_376  # bytes  (222_824_448 per core)

parallelization:
    kpt:    12
    domain: 1
    band:   1

density:
  components: 4
  grid points: [ 30  30 112]
  charge: 0.0  # |e|

potential:
  grid points: [ 30  30 112]

species:
  V:
    name: Vanadium
    id: 7939ce69e6bb5930668dfcf9bb1979c3
    Z: 23.0
    valence: 13
    core: 10
    charge: 0.0
    file: /zhome/86/d/1666/PAW/gpaw-setups-0.9.20000/V.LDA.gz
    compensation charges: {type: gauss,
                           rc: 0.37,
                           lmax: 2}
    cutoffs: {filter: 2.14,
              core: 0.96}
    valence states:
      #              energy  rcut
      - 3s(2.00)   -69.819   1.254
      - 4s(2.00)    -4.846   1.254
      - 3p(6.00)   -43.961   1.281
      - 4p(0.00)    -1.526   1.281
      - 3d(3.00)    -5.381   1.169
      -  d          21.830   1.169
  
    # Using partial waves for V as LCAO basis

  Br:
    name: Bromine
    id: 10a25bbcb3273ec7d8d7f6fc01d2618d
    Z: 35.0
    valence: 7
    core: 28
    charge: 0.0
    file: /zhome/86/d/1666/PAW/gpaw-setups-0.9.20000/Br.LDA.gz
    compensation charges: {type: gauss,
                           rc: 0.35,
                           lmax: 2}
    cutoffs: {filter: 1.98,
              core: 2.38}
    valence states:
      #              energy  rcut
      - 4s(2.00)   -20.306   1.111
      - 4p(5.00)    -8.003   1.111
      -  s           6.906   1.111
      -  p          19.208   1.111
      -  d           0.000   1.111
  
    # Using partial waves for Br as LCAO basis

Reference energy: -167392.690611  # eV

eigensolver:
  name: 'Davidson'
  niter: 2
  converge_bands: 'occupied'
Density mixing:
  Method: sum
  Backend: pulay
  Linear mixing parameter: 0.05
  old densities: 5
  Damping of long wavelength oscillations: 100
occupation numbers:
  Fermi-Dirac:
    width: 0.1000  # eV
  

poisson solver:
  ecut: 8000.0  # eV

xc functional:
  name: None

convergence criteria:
- Maximum [total energy] change in last 3 cyles: 0.0005 eV / valence electron
- Maximum integral of absolute [dens]ity change: 0.0001 electrons / valence electron
- Maximum integral of absolute [eigenst]ate change: 4e-08 eV^2 / valence electron
maximum number of iterations: 333

#      iter     time        total  log10-change:
#                          energy   eigst   dens
# iter:   1 16:38:46   -14.438516                  +1.0,+0.0,+0.0
# iter:   2 16:39:21   -15.133889   +0.11  -1.42   +1.4,-0.0,+0.0
# iter:   3 16:39:56   -15.227717   -0.71  -1.46   +1.7,-0.0,-0.0
# iter:   4 16:40:31   -15.361462   -1.30  -1.55   +1.9,-0.0,-0.0
# iter:   5 16:41:05   -15.575622   -1.86  -1.68   +2.4,-0.0,-0.0
# iter:   6 16:41:40   -15.580366   -2.10  -2.02   +2.5,-0.0,+0.0
# iter:   7 16:42:15   -15.584796c  -2.47  -2.26   +2.6,-0.0,-0.0
# iter:   8 16:42:50   -15.580207c  -2.94  -2.50   +2.6,-0.0,-0.0
# iter:   9 16:43:24   -15.581581c  -3.64  -2.70   +2.6,-0.0,-0.0
# iter:  10 16:43:59   -15.582547c  -3.86  -2.94   +2.6,-0.0,-0.0
# iter:  11 16:44:33   -15.582588c  -4.28  -3.60   +2.7,-0.0,-0.0
# iter:  12 16:45:08   -15.582603c  -4.58  -3.63   +2.7,-0.0,-0.0
# iter:  13 16:45:42   -15.582672c  -4.81  -3.67   +2.7,-0.0,-0.0
# iter:  14 16:46:17   -15.582672c  -5.09  -3.80   +2.7,-0.0,-0.0
# iter:  15 16:46:51   -15.582671c  -5.35  -3.84   +2.7,-0.0,-0.0
# iter:  16 16:47:26   -15.582668c  -5.62  -3.86   +2.7,-0.0,-0.0
# iter:  17 16:48:00   -15.582663c  -5.87  -3.89   +2.7,-0.0,-0.0
# iter:  18 16:48:34   -15.582653c  -6.11  -3.91   +2.7,-0.0,-0.0
# iter:  19 16:49:09   -15.582651c  -6.31  -3.96   +2.7,-0.0,-0.0
# iter:  20 16:49:43   -15.582656c  -6.49  -4.05c  +2.7,-0.0,-0.0
# iter:  21 16:50:18   -15.582658c  -6.77  -4.07c  +2.7,-0.0,-0.0
# iter:  22 16:50:52   -15.582659c  -6.80  -4.11c  +2.7,-0.0,-0.0
# iter:  23 16:51:27   -15.582657c  -7.05  -4.21c  +2.7,-0.0,-0.0
# iter:  24 16:52:01   -15.582657c  -7.34  -4.28c  +2.7,-0.0,-0.0
# iter:  25 16:52:36   -15.582658c  -7.39  -4.34c  +2.7,-0.0,-0.0
# iter:  26 16:53:10   -15.582659c  -7.62c -4.46c  +2.7,-0.0,-0.0
scf_steps: 26
energies:  # eV
  coulomb:          -3.055589
  zero:              0.062185
  xc:              -15.727977
  external:          0.000000
  kinetic:           3.143402
  spinorbit:         0.000000
  entropy:          -0.009360
  total:           -15.587339
  extrapolated:    -15.582659

dipole moment: [-4.577702, -8.451065, -8.136795]  # |e|*Ang

total magnetic moment: [2.666238, -0.000069, -0.000000]

local magnetic moments: [
  [ 2.550736,  0.000000, -0.000000],  # V  0
  [ 0.008875,  0.000026, -0.000000],  # Br 1
  [-0.008736,  0.001566,  0.000000]]  # Br 2


Fermi level: -0.775 eV

kpt = [-0.417, -0.417, 0.000], weight = 0.007:
  Band      eig [eV]   occ [0-1]
     0       -65.510       1.000
   ...
    19        -5.125       1.000
    20        -5.051       1.000
    21        -4.931       1.000
    22        -4.863       1.000
    23        -4.693       1.000
    24        -1.625       1.000
    25        -1.455       0.999
    26        -1.242       0.991
    27        -0.170       0.002
    28        -0.016       0.001
    29         0.691       0.000
    30         0.710       0.000
    31         1.056       0.000
    32         1.329       0.000
    33         1.458       0.000
    34         3.146       0.000
   ...
    41         5.761       0.000

kpt = [-0.417, -0.333, 0.000], weight = 0.007:
  Band      eig [eV]   occ [0-1]
     0       -65.510       1.000
   ...
    19        -5.146       1.000
    20        -4.994       1.000
    21        -4.723       1.000
    22        -4.652       1.000
    23        -4.584       1.000
    24        -1.648       1.000
    25        -1.456       0.999
    26        -1.294       0.994
    27        -0.253       0.005
    28         0.003       0.000
    29         0.688       0.000
    30         0.765       0.000
    31         0.974       0.000
    32         1.201       0.000
    33         1.422       0.000
    34         3.091       0.000
   ...
    41         5.534       0.000

kpt = [-0.417, -0.250, 0.000], weight = 0.007:
  Band      eig [eV]   occ [0-1]
     0       -65.510       1.000
   ...
    19        -5.089       1.000
    20        -4.885       1.000
    21        -4.633       1.000
    22        -4.522       1.000
    23        -4.469       1.000
    24        -1.581       1.000
    25        -1.407       0.998
    26        -1.402       0.998
    27        -0.296       0.008
    28        -0.069       0.001
    29         0.691       0.000
    30         0.754       0.000
    31         0.852       0.000
    32         1.093       0.000
    33         1.305       0.000
    34         3.393       0.000
   ...
    41         5.283       0.000
(only showing first 3 out of 144 k-points)

Gap: 0.825 eV
Transition (v -> c):
  (s=0, k=71, n=26, [-0.00, 0.50, 0.00]) -> (s=0, k=62, n=27, [-0.00, -0.25, 0.00])
# Writing to gsq-11.gpw (mode='')

---

timing:  # [seconds]
  Total: 920.027  # ━━━━━━━━━━━━━━━━━━━━━━━━━━━━━━━━━━━━━━━━━━━━━━━━━━━━━━━━━
  Init:   22.641  # ━╸
  SCF:   896.696  # ━━━━━━━━━━━━━━━━━━━━━━━━━━━━━━━━━━━━━━━━━━━━━━━━━━━━━━━╸

Max RSS: 879.254  # MiB
