#  __  _  _
# | _ |_)|_||  |
# |__||  | ||/\| - 24.1.0

User:   s194113@n-62-29-5
Date:   Sun Apr 21 20:51:47 2024
Arch:   x86_64
Pid:    5518
CWD:    /zhome/87/8/147075/10302/10302_NM/VBr2/E_con
Python: 3.8.5
gpaw:   /zhome/87/8/147075/venv-name/gpaw/gpaw (10808453a8)
_gpaw:  /zhome/87/8/147075/venv-name/gpaw/
        _gpaw.cpython-38-x86_64-linux-gnu.so (10808453a8)
ase:    /zhome/87/8/147075/venv-name/ase/ase (version 3.23.0b1-c36115a2db)
numpy:  /zhome/87/8/147075/venv-name/lib/python3.8/site-packages/numpy (version 1.24.4)
scipy:  /zhome/87/8/147075/venv-name/lib/python3.8/site-packages/scipy (version 1.10.1)
libxc:  4.3.4
units:  Angstrom and eV
cores: 12
OpenMP: False
OMP_NUM_THREADS: 1

---
input parameters:
  kpts: 
    density: 6.0
    gamma: True
  magmoms: [[1, 0, 0], [0, 0, 0], [0, 0, 0]]
  mixer: 
    backend: 'pulay'
    beta: 0.05
    method: 'sum'
    nmaxold: 5
    weight: 100
  mode: 
    name: 'pw'
    ecut: 1000
    qspiral: array([0.02380952, 0.02380952, 0.        ])
  parallel: 
    kpt: None
    domain: 1
    band: 1
    order: 'kdb'
    stridebands: False
    augment_grids: False
    sl_auto: False
    sl_default: None
    sl_diagonalize: None
    sl_inverse_cholesky: None
    sl_lcao: None
    sl_lrtddft: None
    use_elpa: False
    elpasolver: '2stage'
    buffer_size: None
    gpu: False
  symmetry: 
    point_group: False
    time_reversal: False
  xc: 
    name: 'LDA'

#                        
#                        
#                        
#                        
#                        
#              Br        
#                        
#        V               
#          Br            
#                        
#                        
#                        
#                        
#                        

atoms: [  # symbols, positions [Ang] and initial magnetic moments
  [  V, [   0.000000,    0.000000,    7.513573], [ 1.000,  0.000,  0.000]], # 0
  [ Br, [   1.920000,    1.108513,    9.027147], [ 0.000,  0.000,  0.000]], # 1
  [ Br, [  -0.000000,    2.217025,    6.000000], [ 0.000,  0.000,  0.000]]] # 2

cell: [  # Ang
#     x            y            z
  [   3.840000,    0.000000,    0.000000],
  [  -1.920000,    3.325538,    0.000000],
  [   0.000000,   -0.000000,   15.027147]]

periodic: [True      , True      , False     ]
lengths:  [  3.840000,   3.840000,  15.027147]  # Ang
angles:   [ 90.000000,  90.000000, 120.000000]

symmetry:
  number of symmetries: 1
  rotations: [
    [[ 1,  0,  0], [ 0,  1,  0], [ 0,  0,  1]]]

bz sampling:
  number of bz points: 144
  number of ibz points: 144
  monkhorst-pack size: [12, 12, 1]
  monkhorst-pack shift: [0.041666666666666664, 0.041666666666666664, 0.0]
  points and weights: [
    [[ -0.41666667,  -0.41666667,   0.00000000], 0.00694444],  # 0
    [[ -0.41666667,  -0.33333333,   0.00000000], 0.00694444],  # 1
    [[ -0.41666667,  -0.25000000,   0.00000000], 0.00694444],  # 2
    [[ -0.41666667,  -0.16666667,   0.00000000], 0.00694444],  # 3
    [[ -0.41666667,  -0.08333333,   0.00000000], 0.00694444],  # 4
    [[ -0.41666667,  -0.00000000,   0.00000000], 0.00694444],  # 5
    [[ -0.41666667,   0.08333333,   0.00000000], 0.00694444],  # 6
    [[ -0.41666667,   0.16666667,   0.00000000], 0.00694444],  # 7
    [[ -0.41666667,   0.25000000,   0.00000000], 0.00694444],  # 8
    [[ -0.41666667,   0.33333333,   0.00000000], 0.00694444],  # 9
    # ...
    [[  0.50000000,   0.50000000,   0.00000000], 0.00694444]]  # 143

plane wave coefficients: 13840
cutoff: 1000.0 eV

spin-components: 4  # (non-collinear spins)
bands: 42
valence electrons: 27.0
spin-degeneracy: 1
dtype: complex128

memory:
    wave functions: 2_673_893_376  # bytes  (222_824_448 per core)

parallelization:
    kpt:    12
    domain: 1
    band:   1

density:
  components: 4
  grid points: [ 30  30 112]
  charge: 0.0  # |e|

potential:
  grid points: [ 30  30 112]

species:
  V:
    name: Vanadium
    id: 7939ce69e6bb5930668dfcf9bb1979c3
    Z: 23.0
    valence: 13
    core: 10
    charge: 0.0
    file: /zhome/86/d/1666/PAW/gpaw-setups-0.9.20000/V.LDA.gz
    compensation charges: {type: gauss,
                           rc: 0.37,
                           lmax: 2}
    cutoffs: {filter: 2.14,
              core: 0.96}
    valence states:
      #              energy  rcut
      - 3s(2.00)   -69.819   1.254
      - 4s(2.00)    -4.846   1.254
      - 3p(6.00)   -43.961   1.281
      - 4p(0.00)    -1.526   1.281
      - 3d(3.00)    -5.381   1.169
      -  d          21.830   1.169
  
    # Using partial waves for V as LCAO basis

  Br:
    name: Bromine
    id: 10a25bbcb3273ec7d8d7f6fc01d2618d
    Z: 35.0
    valence: 7
    core: 28
    charge: 0.0
    file: /zhome/86/d/1666/PAW/gpaw-setups-0.9.20000/Br.LDA.gz
    compensation charges: {type: gauss,
                           rc: 0.35,
                           lmax: 2}
    cutoffs: {filter: 1.98,
              core: 2.38}
    valence states:
      #              energy  rcut
      - 4s(2.00)   -20.306   1.111
      - 4p(5.00)    -8.003   1.111
      -  s           6.906   1.111
      -  p          19.208   1.111
      -  d           0.000   1.111
  
    # Using partial waves for Br as LCAO basis

Reference energy: -167392.690611  # eV

eigensolver:
  name: 'Davidson'
  niter: 2
  converge_bands: 'occupied'
Density mixing:
  Method: sum
  Backend: pulay
  Linear mixing parameter: 0.05
  old densities: 5
  Damping of long wavelength oscillations: 100
occupation numbers:
  Fermi-Dirac:
    width: 0.1000  # eV
  

poisson solver:
  ecut: 8000.0  # eV

xc functional:
  name: None

convergence criteria:
- Maximum [total energy] change in last 3 cyles: 0.0005 eV / valence electron
- Maximum integral of absolute [dens]ity change: 0.0001 electrons / valence electron
- Maximum integral of absolute [eigenst]ate change: 4e-08 eV^2 / valence electron
maximum number of iterations: 333

#      iter     time        total  log10-change:
#                          energy   eigst   dens
# iter:   1 20:52:42   -14.971657                  +1.0,+0.0,+0.0
# iter:   2 20:53:16   -15.114308   -0.62  -1.42   +1.5,+0.0,+0.0
# iter:   3 20:53:51   -15.146471   -1.17  -1.46   +1.9,-0.0,-0.0
# iter:   4 20:54:25   -15.285504   -1.53  -1.56   +2.2,-0.0,-0.0
# iter:   5 20:54:59   -15.531654   -2.00  -1.68   +2.8,-0.0,+0.0
# iter:   6 20:55:34   -15.549742   -2.11  -2.08   +2.9,-0.0,+0.0
# iter:   7 20:56:08   -15.537774   -2.58  -2.29   +2.9,-0.0,+0.0
# iter:   8 20:56:43   -15.537173c  -3.47  -2.65   +2.9,-0.0,-0.0
# iter:   9 20:57:17   -15.541322c  -3.14  -2.75   +3.0,-0.0,-0.0
# iter:  10 20:57:52   -15.539823c  -3.75  -2.66   +3.0,-0.0,+0.0
# iter:  11 20:58:26   -15.539806c  -4.30  -3.53   +3.0,-0.0,-0.0
# iter:  12 20:59:00   -15.539835c  -4.72  -3.62   +3.0,-0.0,-0.0
# iter:  13 20:59:35   -15.539837c  -4.96  -3.73   +3.0,-0.0,-0.0
# iter:  14 21:00:09   -15.539827c  -5.26  -3.88   +3.0,-0.0,-0.0
# iter:  15 21:00:44   -15.539817c  -5.53  -3.94   +3.0,-0.0,-0.0
# iter:  16 21:01:18   -15.539824c  -5.76  -4.04c  +3.0,-0.0,-0.0
# iter:  17 21:01:52   -15.539826c  -6.09  -4.06c  +3.0,-0.0,-0.0
# iter:  18 21:02:27   -15.539848c  -6.09  -4.10c  +3.0,-0.0,-0.0
# iter:  19 21:03:01   -15.539846c  -6.48  -4.48c  +3.0,-0.0,-0.0
# iter:  20 21:03:36   -15.539845c  -6.85  -4.74c  +3.0,-0.0,-0.0
# iter:  21 21:04:10   -15.539844c  -7.12  -4.79c  +3.0,-0.0,-0.0
# iter:  22 21:04:45   -15.539844c  -7.29  -4.85c  +3.0,-0.0,-0.0
# iter:  23 21:05:19   -15.539844c  -7.33  -4.72c  +3.0,-0.0,-0.0
# iter:  24 21:05:53   -15.539844c  -8.02c -5.13c  +3.0,-0.0,-0.0
scf_steps: 24
energies:  # eV
  coulomb:          -3.863655
  zero:              0.058854
  xc:              -16.022085
  external:          0.000000
  kinetic:           4.293108
  spinorbit:         0.000000
  entropy:          -0.012132
  total:           -15.545910
  extrapolated:    -15.539844

dipole moment: [-5.265734, -9.119711, -10.188383]  # |e|*Ang

total magnetic moment: [2.994998, -0.000365, -0.000000]

local magnetic moments: [
  [ 2.642066,  0.000000, -0.000000],  # V  0
  [-0.029279,  0.004401,  0.000000],  # Br 1
  [-0.029275,  0.004425,  0.000000]]  # Br 2


Fermi level: -0.652 eV

kpt = [-0.417, -0.417, 0.000], weight = 0.007:
  Band      eig [eV]   occ [0-1]
     0       -65.405       1.000
   ...
    19        -5.091       1.000
    20        -5.046       1.000
    21        -5.035       1.000
    22        -4.930       1.000
    23        -4.817       1.000
    24        -1.686       1.000
    25        -1.164       0.994
    26        -1.158       0.994
    27        -0.078       0.003
    28         0.163       0.000
    29         0.350       0.000
    30         1.130       0.000
    31         1.218       0.000
    32         1.494       0.000
    33         1.700       0.000
    34         3.197       0.000
   ...
    41         5.772       0.000

kpt = [-0.417, -0.333, 0.000], weight = 0.007:
  Band      eig [eV]   occ [0-1]
     0       -65.405       1.000
   ...
    19        -5.249       1.000
    20        -5.139       1.000
    21        -4.981       1.000
    22        -4.953       1.000
    23        -4.785       1.000
    24        -1.511       1.000
    25        -1.224       0.997
    26        -1.157       0.994
    27        -0.122       0.005
    28         0.095       0.001
    29         0.682       0.000
    30         1.024       0.000
    31         1.149       0.000
    32         1.430       0.000
    33         1.605       0.000
    34         3.606       0.000
   ...
    41         6.098       0.000

kpt = [-0.417, -0.250, 0.000], weight = 0.007:
  Band      eig [eV]   occ [0-1]
     0       -65.405       1.000
   ...
    19        -5.256       1.000
    20        -5.141       1.000
    21        -4.987       1.000
    22        -4.948       1.000
    23        -4.782       1.000
    24        -1.509       1.000
    25        -1.225       0.997
    26        -1.157       0.994
    27        -0.125       0.005
    28         0.096       0.001
    29         0.682       0.000
    30         1.022       0.000
    31         1.149       0.000
    32         1.429       0.000
    33         1.606       0.000
    34         3.620       0.000
   ...
    41         6.234       0.000
(only showing first 3 out of 144 k-points)

Gap: 0.806 eV
Transition (v -> c):
  (s=0, k=125, n=26, [0.42, -0.00, 0.00]) -> (s=0, k=43, n=27, [-0.17, 0.17, 0.00])
# Writing to gsq-29.gpw (mode='')

---

timing:  # [seconds]
  Total: 847.299  # ━━━━━━━━━━━━━━━━━━━━━━━━━━━━━━━━━━━━━━━━━━━━━━━━━━━━━━━━━
  Init:   22.606  # ━╸
  SCF:   823.983  # ━━━━━━━━━━━━━━━━━━━━━━━━━━━━━━━━━━━━━━━━━━━━━━━━━━━━━━━╸

Max RSS: 1426.785  # MiB
