#  __  _  _
# | _ |_)|_||  |
# |__||  | ||/\| - 24.1.0

User:   s194113@n-62-29-5
Date:   Sun Apr 21 14:48:11 2024
Arch:   x86_64
Pid:    5518
CWD:    /zhome/87/8/147075/10302/10302_NM/VBr2/E_con
Python: 3.8.5
gpaw:   /zhome/87/8/147075/venv-name/gpaw/gpaw (10808453a8)
_gpaw:  /zhome/87/8/147075/venv-name/gpaw/
        _gpaw.cpython-38-x86_64-linux-gnu.so (10808453a8)
ase:    /zhome/87/8/147075/venv-name/ase/ase (version 3.23.0b1-c36115a2db)
numpy:  /zhome/87/8/147075/venv-name/lib/python3.8/site-packages/numpy (version 1.24.4)
scipy:  /zhome/87/8/147075/venv-name/lib/python3.8/site-packages/scipy (version 1.10.1)
libxc:  4.3.4
units:  Angstrom and eV
cores: 12
OpenMP: False
OMP_NUM_THREADS: 1

---
input parameters:
  kpts: 
    density: 6.0
    gamma: True
  magmoms: [[1, 0, 0], [0, 0, 0], [0, 0, 0]]
  mixer: 
    backend: 'pulay'
    beta: 0.05
    method: 'sum'
    nmaxold: 5
    weight: 100
  mode: 
    name: 'pw'
    ecut: 1000
    qspiral: array([0.15, 0.  , 0.  ])
  parallel: 
    kpt: None
    domain: 1
    band: 1
    order: 'kdb'
    stridebands: False
    augment_grids: False
    sl_auto: False
    sl_default: None
    sl_diagonalize: None
    sl_inverse_cholesky: None
    sl_lcao: None
    sl_lrtddft: None
    use_elpa: False
    elpasolver: '2stage'
    buffer_size: None
    gpu: False
  symmetry: 
    point_group: False
    time_reversal: False
  xc: 
    name: 'LDA'

#                        
#                        
#                        
#                        
#                        
#              Br        
#                        
#        V               
#          Br            
#                        
#                        
#                        
#                        
#                        

atoms: [  # symbols, positions [Ang] and initial magnetic moments
  [  V, [   0.000000,    0.000000,    7.513573], [ 1.000,  0.000,  0.000]], # 0
  [ Br, [   1.920000,    1.108513,    9.027147], [ 0.000,  0.000,  0.000]], # 1
  [ Br, [  -0.000000,    2.217025,    6.000000], [ 0.000,  0.000,  0.000]]] # 2

cell: [  # Ang
#     x            y            z
  [   3.840000,    0.000000,    0.000000],
  [  -1.920000,    3.325538,    0.000000],
  [   0.000000,   -0.000000,   15.027147]]

periodic: [True      , True      , False     ]
lengths:  [  3.840000,   3.840000,  15.027147]  # Ang
angles:   [ 90.000000,  90.000000, 120.000000]

symmetry:
  number of symmetries: 1
  rotations: [
    [[ 1,  0,  0], [ 0,  1,  0], [ 0,  0,  1]]]

bz sampling:
  number of bz points: 144
  number of ibz points: 144
  monkhorst-pack size: [12, 12, 1]
  monkhorst-pack shift: [0.041666666666666664, 0.041666666666666664, 0.0]
  points and weights: [
    [[ -0.41666667,  -0.41666667,   0.00000000], 0.00694444],  # 0
    [[ -0.41666667,  -0.33333333,   0.00000000], 0.00694444],  # 1
    [[ -0.41666667,  -0.25000000,   0.00000000], 0.00694444],  # 2
    [[ -0.41666667,  -0.16666667,   0.00000000], 0.00694444],  # 3
    [[ -0.41666667,  -0.08333333,   0.00000000], 0.00694444],  # 4
    [[ -0.41666667,  -0.00000000,   0.00000000], 0.00694444],  # 5
    [[ -0.41666667,   0.08333333,   0.00000000], 0.00694444],  # 6
    [[ -0.41666667,   0.16666667,   0.00000000], 0.00694444],  # 7
    [[ -0.41666667,   0.25000000,   0.00000000], 0.00694444],  # 8
    [[ -0.41666667,   0.33333333,   0.00000000], 0.00694444],  # 9
    # ...
    [[  0.50000000,   0.50000000,   0.00000000], 0.00694444]]  # 143

plane wave coefficients: 13840
cutoff: 1000.0 eV

spin-components: 4  # (non-collinear spins)
bands: 42
valence electrons: 27.0
spin-degeneracy: 1
dtype: complex128

memory:
    wave functions: 2_673_893_376  # bytes  (222_824_448 per core)

parallelization:
    kpt:    12
    domain: 1
    band:   1

density:
  components: 4
  grid points: [ 30  30 112]
  charge: 0.0  # |e|

potential:
  grid points: [ 30  30 112]

species:
  V:
    name: Vanadium
    id: 7939ce69e6bb5930668dfcf9bb1979c3
    Z: 23.0
    valence: 13
    core: 10
    charge: 0.0
    file: /zhome/86/d/1666/PAW/gpaw-setups-0.9.20000/V.LDA.gz
    compensation charges: {type: gauss,
                           rc: 0.37,
                           lmax: 2}
    cutoffs: {filter: 2.14,
              core: 0.96}
    valence states:
      #              energy  rcut
      - 3s(2.00)   -69.819   1.254
      - 4s(2.00)    -4.846   1.254
      - 3p(6.00)   -43.961   1.281
      - 4p(0.00)    -1.526   1.281
      - 3d(3.00)    -5.381   1.169
      -  d          21.830   1.169
  
    # Using partial waves for V as LCAO basis

  Br:
    name: Bromine
    id: 10a25bbcb3273ec7d8d7f6fc01d2618d
    Z: 35.0
    valence: 7
    core: 28
    charge: 0.0
    file: /zhome/86/d/1666/PAW/gpaw-setups-0.9.20000/Br.LDA.gz
    compensation charges: {type: gauss,
                           rc: 0.35,
                           lmax: 2}
    cutoffs: {filter: 1.98,
              core: 2.38}
    valence states:
      #              energy  rcut
      - 4s(2.00)   -20.306   1.111
      - 4p(5.00)    -8.003   1.111
      -  s           6.906   1.111
      -  p          19.208   1.111
      -  d           0.000   1.111
  
    # Using partial waves for Br as LCAO basis

Reference energy: -167392.690611  # eV

eigensolver:
  name: 'Davidson'
  niter: 2
  converge_bands: 'occupied'
Density mixing:
  Method: sum
  Backend: pulay
  Linear mixing parameter: 0.05
  old densities: 5
  Damping of long wavelength oscillations: 100
occupation numbers:
  Fermi-Dirac:
    width: 0.1000  # eV
  

poisson solver:
  ecut: 8000.0  # eV

xc functional:
  name: None

convergence criteria:
- Maximum [total energy] change in last 3 cyles: 0.0005 eV / valence electron
- Maximum integral of absolute [dens]ity change: 0.0001 electrons / valence electron
- Maximum integral of absolute [eigenst]ate change: 4e-08 eV^2 / valence electron
maximum number of iterations: 333

#      iter     time        total  log10-change:
#                          energy   eigst   dens
# iter:   1 14:49:07   -14.937651                  +1.0,+0.0,+0.0
# iter:   2 14:49:41   -15.132681   -0.53  -1.42   +1.5,-0.0,-0.0
# iter:   3 14:50:16   -15.168997   -1.17  -1.46   +1.9,-0.0,-0.0
# iter:   4 14:50:51   -15.306612   -1.56  -1.56   +2.2,-0.0,+0.0
# iter:   5 14:51:26   -15.545791   -2.05  -1.68   +2.8,-0.0,+0.0
# iter:   6 14:52:00   -15.554185   -2.25  -2.07   +2.8,-0.0,+0.0
# iter:   7 14:52:34   -15.549006c  -2.72  -2.28   +2.9,-0.0,-0.0
# iter:   8 14:53:09   -15.547506c  -3.52  -2.63   +2.9,-0.0,-0.0
# iter:   9 14:53:43   -15.551980c  -3.10  -2.75   +2.9,-0.0,-0.0
# iter:  10 14:54:17   -15.550024c  -3.76  -2.59   +2.9,-0.0,-0.0
# iter:  11 14:54:51   -15.550019c  -4.44  -3.52   +2.9,-0.0,-0.0
# iter:  12 14:55:26   -15.550046c  -4.89  -3.61   +2.9,-0.0,-0.0
# iter:  13 14:56:00   -15.550074c  -4.82  -3.70   +2.9,-0.0,-0.0
# iter:  14 14:56:35   -15.550062c  -5.33  -3.87   +2.9,-0.0,-0.0
# iter:  15 14:57:09   -15.550062c  -5.68  -4.33c  +2.9,-0.0,-0.0
# iter:  16 14:57:43   -15.550064c  -5.95  -4.39c  +2.9,-0.0,-0.0
# iter:  17 14:58:18   -15.550063c  -6.05  -4.40c  +2.9,-0.0,-0.0
# iter:  18 14:58:52   -15.550061c  -6.43  -4.40c  +2.9,-0.0,-0.0
# iter:  19 14:59:27   -15.550061c  -6.77  -4.55c  +2.9,-0.0,-0.0
# iter:  20 15:00:01   -15.550062c  -6.94  -4.57c  +2.9,-0.0,-0.0
# iter:  21 15:00:35   -15.550062c  -7.14  -4.78c  +2.9,-0.0,-0.0
# iter:  22 15:01:09   -15.550064c  -7.40c -5.10c  +2.9,-0.0,-0.0
scf_steps: 22
energies:  # eV
  coulomb:          -3.671216
  zero:              0.058614
  xc:              -15.959012
  external:          0.000000
  kinetic:           4.026937
  spinorbit:         0.000000
  entropy:          -0.010773
  total:           -15.555450
  extrapolated:    -15.550064

dipole moment: [-5.108809, -9.020744, -9.901980]  # |e|*Ang

total magnetic moment: [2.947188, -0.001078, -0.000000]

local magnetic moments: [
  [ 2.623849,  0.000000, -0.000000],  # V  0
  [-0.022845,  0.016548, -0.000000],  # Br 1
  [-0.026816,  0.008755, -0.000000]]  # Br 2


Fermi level: -0.663 eV

kpt = [-0.417, -0.417, 0.000], weight = 0.007:
  Band      eig [eV]   occ [0-1]
     0       -65.424       1.000
   ...
    19        -5.114       1.000
    20        -5.013       1.000
    21        -4.973       1.000
    22        -4.892       1.000
    23        -4.800       1.000
    24        -1.705       1.000
    25        -1.198       0.995
    26        -1.178       0.994
    27        -0.065       0.003
    28         0.094       0.001
    29         0.395       0.000
    30         1.108       0.000
    31         1.176       0.000
    32         1.474       0.000
    33         1.640       0.000
    34         3.069       0.000
   ...
    41         6.061       0.000

kpt = [-0.417, -0.333, 0.000], weight = 0.007:
  Band      eig [eV]   occ [0-1]
     0       -65.424       1.000
   ...
    19        -5.192       1.000
    20        -5.134       1.000
    21        -4.981       1.000
    22        -4.936       1.000
    23        -4.744       1.000
    24        -1.527       1.000
    25        -1.249       0.997
    26        -1.193       0.995
    27        -0.109       0.004
    28         0.036       0.001
    29         0.685       0.000
    30         1.007       0.000
    31         1.116       0.000
    32         1.403       0.000
    33         1.544       0.000
    34         3.494       0.000
   ...
    41         6.084       0.000

kpt = [-0.417, -0.250, 0.000], weight = 0.007:
  Band      eig [eV]   occ [0-1]
     0       -65.424       1.000
   ...
    19        -5.210       1.000
    20        -5.187       1.000
    21        -5.039       1.000
    22        -4.887       1.000
    23        -4.718       1.000
    24        -1.497       1.000
    25        -1.261       0.997
    26        -1.193       0.995
    27        -0.149       0.006
    28         0.050       0.001
    29         0.688       0.000
    30         0.982       0.000
    31         1.112       0.000
    32         1.383       0.000
    33         1.554       0.000
    34         3.657       0.000
   ...
    41         6.084       0.000
(only showing first 3 out of 144 k-points)

Gap: 0.844 eV
Transition (v -> c):
  (s=0, k=137, n=26, [0.50, -0.00, 0.00]) -> (s=0, k=31, n=27, [-0.25, 0.17, 0.00])
# Writing to gsq-03.gpw (mode='')

gsq-03.gpw (mode='')

.00])
# Writing to gsq-03.gpw (mode='')

