#  __  _  _
# | _ |_)|_||  |
# |__||  | ||/\| - 24.1.0

User:   s194113@n-62-29-5
Date:   Sun Apr 21 17:22:38 2024
Arch:   x86_64
Pid:    5518
CWD:    /zhome/87/8/147075/10302/10302_NM/VBr2/E_con
Python: 3.8.5
gpaw:   /zhome/87/8/147075/venv-name/gpaw/gpaw (10808453a8)
_gpaw:  /zhome/87/8/147075/venv-name/gpaw/
        _gpaw.cpython-38-x86_64-linux-gnu.so (10808453a8)
ase:    /zhome/87/8/147075/venv-name/ase/ase (version 3.23.0b1-c36115a2db)
numpy:  /zhome/87/8/147075/venv-name/lib/python3.8/site-packages/numpy (version 1.24.4)
scipy:  /zhome/87/8/147075/venv-name/lib/python3.8/site-packages/scipy (version 1.10.1)
libxc:  4.3.4
units:  Angstrom and eV
cores: 12
OpenMP: False
OMP_NUM_THREADS: 1

---
input parameters:
  kpts: 
    density: 6.0
    gamma: True
  magmoms: [[1, 0, 0], [0, 0, 0], [0, 0, 0]]
  mixer: 
    backend: 'pulay'
    beta: 0.05
    method: 'sum'
    nmaxold: 5
    weight: 100
  mode: 
    name: 'pw'
    ecut: 1000
    qspiral: array([0.38888889, 0.22222222, 0.        ])
  parallel: 
    kpt: None
    domain: 1
    band: 1
    order: 'kdb'
    stridebands: False
    augment_grids: False
    sl_auto: False
    sl_default: None
    sl_diagonalize: None
    sl_inverse_cholesky: None
    sl_lcao: None
    sl_lrtddft: None
    use_elpa: False
    elpasolver: '2stage'
    buffer_size: None
    gpu: False
  symmetry: 
    point_group: False
    time_reversal: False
  xc: 
    name: 'LDA'

#                        
#                        
#                        
#                        
#                        
#              Br        
#                        
#        V               
#          Br            
#                        
#                        
#                        
#                        
#                        

atoms: [  # symbols, positions [Ang] and initial magnetic moments
  [  V, [   0.000000,    0.000000,    7.513573], [ 1.000,  0.000,  0.000]], # 0
  [ Br, [   1.920000,    1.108513,    9.027147], [ 0.000,  0.000,  0.000]], # 1
  [ Br, [  -0.000000,    2.217025,    6.000000], [ 0.000,  0.000,  0.000]]] # 2

cell: [  # Ang
#     x            y            z
  [   3.840000,    0.000000,    0.000000],
  [  -1.920000,    3.325538,    0.000000],
  [   0.000000,   -0.000000,   15.027147]]

periodic: [True      , True      , False     ]
lengths:  [  3.840000,   3.840000,  15.027147]  # Ang
angles:   [ 90.000000,  90.000000, 120.000000]

symmetry:
  number of symmetries: 1
  rotations: [
    [[ 1,  0,  0], [ 0,  1,  0], [ 0,  0,  1]]]

bz sampling:
  number of bz points: 144
  number of ibz points: 144
  monkhorst-pack size: [12, 12, 1]
  monkhorst-pack shift: [0.041666666666666664, 0.041666666666666664, 0.0]
  points and weights: [
    [[ -0.41666667,  -0.41666667,   0.00000000], 0.00694444],  # 0
    [[ -0.41666667,  -0.33333333,   0.00000000], 0.00694444],  # 1
    [[ -0.41666667,  -0.25000000,   0.00000000], 0.00694444],  # 2
    [[ -0.41666667,  -0.16666667,   0.00000000], 0.00694444],  # 3
    [[ -0.41666667,  -0.08333333,   0.00000000], 0.00694444],  # 4
    [[ -0.41666667,  -0.00000000,   0.00000000], 0.00694444],  # 5
    [[ -0.41666667,   0.08333333,   0.00000000], 0.00694444],  # 6
    [[ -0.41666667,   0.16666667,   0.00000000], 0.00694444],  # 7
    [[ -0.41666667,   0.25000000,   0.00000000], 0.00694444],  # 8
    [[ -0.41666667,   0.33333333,   0.00000000], 0.00694444],  # 9
    # ...
    [[  0.50000000,   0.50000000,   0.00000000], 0.00694444]]  # 143

plane wave coefficients: 13840
cutoff: 1000.0 eV

spin-components: 4  # (non-collinear spins)
bands: 42
valence electrons: 27.0
spin-degeneracy: 1
dtype: complex128

memory:
    wave functions: 2_673_893_376  # bytes  (222_824_448 per core)

parallelization:
    kpt:    12
    domain: 1
    band:   1

density:
  components: 4
  grid points: [ 30  30 112]
  charge: 0.0  # |e|

potential:
  grid points: [ 30  30 112]

species:
  V:
    name: Vanadium
    id: 7939ce69e6bb5930668dfcf9bb1979c3
    Z: 23.0
    valence: 13
    core: 10
    charge: 0.0
    file: /zhome/86/d/1666/PAW/gpaw-setups-0.9.20000/V.LDA.gz
    compensation charges: {type: gauss,
                           rc: 0.37,
                           lmax: 2}
    cutoffs: {filter: 2.14,
              core: 0.96}
    valence states:
      #              energy  rcut
      - 3s(2.00)   -69.819   1.254
      - 4s(2.00)    -4.846   1.254
      - 3p(6.00)   -43.961   1.281
      - 4p(0.00)    -1.526   1.281
      - 3d(3.00)    -5.381   1.169
      -  d          21.830   1.169
  
    # Using partial waves for V as LCAO basis

  Br:
    name: Bromine
    id: 10a25bbcb3273ec7d8d7f6fc01d2618d
    Z: 35.0
    valence: 7
    core: 28
    charge: 0.0
    file: /zhome/86/d/1666/PAW/gpaw-setups-0.9.20000/Br.LDA.gz
    compensation charges: {type: gauss,
                           rc: 0.35,
                           lmax: 2}
    cutoffs: {filter: 1.98,
              core: 2.38}
    valence states:
      #              energy  rcut
      - 4s(2.00)   -20.306   1.111
      - 4p(5.00)    -8.003   1.111
      -  s           6.906   1.111
      -  p          19.208   1.111
      -  d           0.000   1.111
  
    # Using partial waves for Br as LCAO basis

Reference energy: -167392.690611  # eV

eigensolver:
  name: 'Davidson'
  niter: 2
  converge_bands: 'occupied'
Density mixing:
  Method: sum
  Backend: pulay
  Linear mixing parameter: 0.05
  old densities: 5
  Damping of long wavelength oscillations: 100
occupation numbers:
  Fermi-Dirac:
    width: 0.1000  # eV
  

poisson solver:
  ecut: 8000.0  # eV

xc functional:
  name: None

convergence criteria:
- Maximum [total energy] change in last 3 cyles: 0.0005 eV / valence electron
- Maximum integral of absolute [dens]ity change: 0.0001 electrons / valence electron
- Maximum integral of absolute [eigenst]ate change: 4e-08 eV^2 / valence electron
maximum number of iterations: 333

#      iter     time        total  log10-change:
#                          energy   eigst   dens
# iter:   1 17:23:33   -14.331056                  +1.0,+0.0,+0.0
# iter:   2 17:24:08   -15.129186   +0.17  -1.42   +1.4,-0.0,+0.0
# iter:   3 17:24:43   -15.236477   -0.65  -1.46   +1.6,-0.0,+0.0
# iter:   4 17:25:18   -15.368874   -1.26  -1.55   +1.9,-0.0,-0.0
# iter:   5 17:25:52   -15.583615   -1.81  -1.68   +2.3,-0.0,-0.0
# iter:   6 17:26:27   -15.585917   -2.04  -2.00   +2.5,-0.0,-0.0
# iter:   7 17:27:02   -15.591405c  -2.35  -2.26   +2.5,-0.0,-0.0
# iter:   8 17:27:37   -15.585972c  -2.86  -2.50   +2.5,-0.0,-0.0
# iter:   9 17:28:11   -15.587691c  -3.59  -2.70   +2.6,-0.0,-0.0
# iter:  10 17:28:46   -15.588256c  -3.88  -3.03   +2.6,-0.0,-0.0
# iter:  11 17:29:20   -15.588315c  -4.24  -3.61   +2.6,-0.0,-0.0
# iter:  12 17:29:55   -15.588335c  -4.53  -3.66   +2.6,-0.0,-0.0
# iter:  13 17:30:30   -15.588381c  -4.78  -3.70   +2.6,-0.0,-0.0
# iter:  14 17:31:04   -15.588390c  -4.96  -3.81   +2.6,-0.0,-0.0
# iter:  15 17:31:39   -15.588388c  -5.27  -4.04c  +2.6,-0.0,-0.0
# iter:  16 17:32:13   -15.588385c  -5.55  -4.34c  +2.6,-0.0,+0.0
# iter:  17 17:32:48   -15.588387c  -5.77  -4.22c  +2.6,-0.0,+0.0
# iter:  18 17:33:23   -15.588388c  -6.01  -4.47c  +2.6,-0.0,-0.0
# iter:  19 17:33:58   -15.588391c  -6.13  -4.49c  +2.6,-0.0,-0.0
# iter:  20 17:34:32   -15.588391c  -6.43  -4.69c  +2.6,-0.0,+0.0
# iter:  21 17:35:07   -15.588391c  -6.66  -4.95c  +2.6,-0.0,+0.0
# iter:  22 17:35:42   -15.588391c  -6.87  -5.03c  +2.6,-0.0,+0.0
# iter:  23 17:36:16   -15.588391c  -7.10  -5.23c  +2.6,-0.0,+0.0
# iter:  24 17:36:51   -15.588391c  -7.32  -5.64c  +2.6,-0.0,+0.0
# iter:  25 17:37:25   -15.588391c  -7.53c -5.67c  +2.6,-0.0,+0.0
scf_steps: 25
energies:  # eV
  coulomb:          -2.928143
  zero:              0.061570
  xc:              -15.702895
  external:          0.000000
  kinetic:           2.985382
  spinorbit:         0.000000
  entropy:          -0.008612
  total:           -15.592697
  extrapolated:    -15.588391

dipole moment: [-4.644561, -8.263048, -7.856394]  # |e|*Ang

total magnetic moment: [2.629769, -0.000149, 0.000000]

local magnetic moments: [
  [ 2.545955,  0.000000,  0.000000],  # V  0
  [ 0.005355,  0.000053, -0.000000],  # Br 1
  [-0.004068,  0.003482,  0.000000]]  # Br 2


Fermi level: -0.768 eV

kpt = [-0.417, -0.417, 0.000], weight = 0.007:
  Band      eig [eV]   occ [0-1]
     0       -65.517       1.000
   ...
    19        -5.178       1.000
    20        -5.098       1.000
    21        -5.068       1.000
    22        -4.868       1.000
    23        -4.792       1.000
    24        -1.566       1.000
    25        -1.405       0.998
    26        -1.291       0.995
    27        -0.169       0.002
    28        -0.054       0.001
    29         0.744       0.000
    30         0.791       0.000
    31         0.970       0.000
    32         1.338       0.000
    33         1.409       0.000
    34         3.255       0.000
   ...
    41         6.014       0.000

kpt = [-0.417, -0.333, 0.000], weight = 0.007:
  Band      eig [eV]   occ [0-1]
     0       -65.517       1.000
   ...
    19        -5.120       1.000
    20        -4.972       1.000
    21        -4.831       1.000
    22        -4.755       1.000
    23        -4.613       1.000
    24        -1.653       1.000
    25        -1.401       0.998
    26        -1.350       0.997
    27        -0.225       0.004
    28        -0.030       0.001
    29         0.680       0.000
    30         0.839       0.000
    31         0.896       0.000
    32         1.279       0.000
    33         1.392       0.000
    34         3.022       0.000
   ...
    41         5.457       0.000

kpt = [-0.417, -0.250, 0.000], weight = 0.007:
  Band      eig [eV]   occ [0-1]
     0       -65.517       1.000
   ...
    19        -5.032       1.000
    20        -4.772       1.000
    21        -4.678       1.000
    22        -4.642       1.000
    23        -4.443       1.000
    24        -1.669       1.000
    25        -1.483       0.999
    26        -1.331       0.996
    27        -0.217       0.004
    28        -0.098       0.001
    29         0.602       0.000
    30         0.764       0.000
    31         0.904       0.000
    32         1.216       0.000
    33         1.295       0.000
    34         3.056       0.000
   ...
    41         5.110       0.000
(only showing first 3 out of 144 k-points)

Gap: 0.834 eV
Transition (v -> c):
  (s=0, k=71, n=26, [-0.00, 0.50, 0.00]) -> (s=0, k=62, n=27, [-0.00, -0.25, 0.00])
# Writing to gsq-14.gpw (mode='')

---

timing:  # [seconds]
  Total: 889.659  # ━━━━━━━━━━━━━━━━━━━━━━━━━━━━━━━━━━━━━━━━━━━━━━━━━━━━━━━━━
  Init:   22.765  # ━╸
  SCF:   864.647  # ━━━━━━━━━━━━━━━━━━━━━━━━━━━━━━━━━━━━━━━━━━━━━━━━━━━━━━━╸

Max RSS: 928.629  # MiB
Max RSS: 819.762  # MiB
