#  __  _  _
# | _ |_)|_||  |
# |__||  | ||/\| - 24.1.0

User:   s194113@n-62-29-5
Date:   Sun Apr 21 15:01:09 2024
Arch:   x86_64
Pid:    5518
CWD:    /zhome/87/8/147075/10302/10302_NM/VBr2/E_con
Python: 3.8.5
gpaw:   /zhome/87/8/147075/venv-name/gpaw/gpaw (10808453a8)
_gpaw:  /zhome/87/8/147075/venv-name/gpaw/
        _gpaw.cpython-38-x86_64-linux-gnu.so (10808453a8)
ase:    /zhome/87/8/147075/venv-name/ase/ase (version 3.23.0b1-c36115a2db)
numpy:  /zhome/87/8/147075/venv-name/lib/python3.8/site-packages/numpy (version 1.24.4)
scipy:  /zhome/87/8/147075/venv-name/lib/python3.8/site-packages/scipy (version 1.10.1)
libxc:  4.3.4
units:  Angstrom and eV
cores: 12
OpenMP: False
OMP_NUM_THREADS: 1

---
input parameters:
  kpts: 
    density: 6.0
    gamma: True
  magmoms: [[1, 0, 0], [0, 0, 0], [0, 0, 0]]
  mixer: 
    backend: 'pulay'
    beta: 0.05
    method: 'sum'
    nmaxold: 5
    weight: 100
  mode: 
    name: 'pw'
    ecut: 1000
    qspiral: array([0.2, 0. , 0. ])
  parallel: 
    kpt: None
    domain: 1
    band: 1
    order: 'kdb'
    stridebands: False
    augment_grids: False
    sl_auto: False
    sl_default: None
    sl_diagonalize: None
    sl_inverse_cholesky: None
    sl_lcao: None
    sl_lrtddft: None
    use_elpa: False
    elpasolver: '2stage'
    buffer_size: None
    gpu: False
  symmetry: 
    point_group: False
    time_reversal: False
  xc: 
    name: 'LDA'

#                        
#                        
#                        
#                        
#                        
#              Br        
#                        
#        V               
#          Br            
#                        
#                        
#                        
#                        
#                        

atoms: [  # symbols, positions [Ang] and initial magnetic moments
  [  V, [   0.000000,    0.000000,    7.513573], [ 1.000,  0.000,  0.000]], # 0
  [ Br, [   1.920000,    1.108513,    9.027147], [ 0.000,  0.000,  0.000]], # 1
  [ Br, [  -0.000000,    2.217025,    6.000000], [ 0.000,  0.000,  0.000]]] # 2

cell: [  # Ang
#     x            y            z
  [   3.840000,    0.000000,    0.000000],
  [  -1.920000,    3.325538,    0.000000],
  [   0.000000,   -0.000000,   15.027147]]

periodic: [True      , True      , False     ]
lengths:  [  3.840000,   3.840000,  15.027147]  # Ang
angles:   [ 90.000000,  90.000000, 120.000000]

symmetry:
  number of symmetries: 1
  rotations: [
    [[ 1,  0,  0], [ 0,  1,  0], [ 0,  0,  1]]]

bz sampling:
  number of bz points: 144
  number of ibz points: 144
  monkhorst-pack size: [12, 12, 1]
  monkhorst-pack shift: [0.041666666666666664, 0.041666666666666664, 0.0]
  points and weights: [
    [[ -0.41666667,  -0.41666667,   0.00000000], 0.00694444],  # 0
    [[ -0.41666667,  -0.33333333,   0.00000000], 0.00694444],  # 1
    [[ -0.41666667,  -0.25000000,   0.00000000], 0.00694444],  # 2
    [[ -0.41666667,  -0.16666667,   0.00000000], 0.00694444],  # 3
    [[ -0.41666667,  -0.08333333,   0.00000000], 0.00694444],  # 4
    [[ -0.41666667,  -0.00000000,   0.00000000], 0.00694444],  # 5
    [[ -0.41666667,   0.08333333,   0.00000000], 0.00694444],  # 6
    [[ -0.41666667,   0.16666667,   0.00000000], 0.00694444],  # 7
    [[ -0.41666667,   0.25000000,   0.00000000], 0.00694444],  # 8
    [[ -0.41666667,   0.33333333,   0.00000000], 0.00694444],  # 9
    # ...
    [[  0.50000000,   0.50000000,   0.00000000], 0.00694444]]  # 143

plane wave coefficients: 13840
cutoff: 1000.0 eV

spin-components: 4  # (non-collinear spins)
bands: 42
valence electrons: 27.0
spin-degeneracy: 1
dtype: complex128

memory:
    wave functions: 2_673_893_376  # bytes  (222_824_448 per core)

parallelization:
    kpt:    12
    domain: 1
    band:   1

density:
  components: 4
  grid points: [ 30  30 112]
  charge: 0.0  # |e|

potential:
  grid points: [ 30  30 112]

species:
  V:
    name: Vanadium
    id: 7939ce69e6bb5930668dfcf9bb1979c3
    Z: 23.0
    valence: 13
    core: 10
    charge: 0.0
    file: /zhome/86/d/1666/PAW/gpaw-setups-0.9.20000/V.LDA.gz
    compensation charges: {type: gauss,
                           rc: 0.37,
                           lmax: 2}
    cutoffs: {filter: 2.14,
              core: 0.96}
    valence states:
      #              energy  rcut
      - 3s(2.00)   -69.819   1.254
      - 4s(2.00)    -4.846   1.254
      - 3p(6.00)   -43.961   1.281
      - 4p(0.00)    -1.526   1.281
      - 3d(3.00)    -5.381   1.169
      -  d          21.830   1.169
  
    # Using partial waves for V as LCAO basis

  Br:
    name: Bromine
    id: 10a25bbcb3273ec7d8d7f6fc01d2618d
    Z: 35.0
    valence: 7
    core: 28
    charge: 0.0
    file: /zhome/86/d/1666/PAW/gpaw-setups-0.9.20000/Br.LDA.gz
    compensation charges: {type: gauss,
                           rc: 0.35,
                           lmax: 2}
    cutoffs: {filter: 1.98,
              core: 2.38}
    valence states:
      #              energy  rcut
      - 4s(2.00)   -20.306   1.111
      - 4p(5.00)    -8.003   1.111
      -  s           6.906   1.111
      -  p          19.208   1.111
      -  d           0.000   1.111
  
    # Using partial waves for Br as LCAO basis

Reference energy: -167392.690611  # eV

eigensolver:
  name: 'Davidson'
  niter: 2
  converge_bands: 'occupied'
Density mixing:
  Method: sum
  Backend: pulay
  Linear mixing parameter: 0.05
  old densities: 5
  Damping of long wavelength oscillations: 100
occupation numbers:
  Fermi-Dirac:
    width: 0.1000  # eV
  

poisson solver:
  ecut: 8000.0  # eV

xc functional:
  name: None

convergence criteria:
- Maximum [total energy] change in last 3 cyles: 0.0005 eV / valence electron
- Maximum integral of absolute [dens]ity change: 0.0001 electrons / valence electron
- Maximum integral of absolute [eigenst]ate change: 4e-08 eV^2 / valence electron
maximum number of iterations: 333

#      iter     time        total  log10-change:
#                          energy   eigst   dens
# iter:   1 15:02:05   -14.910637                  +1.0,+0.0,+0.0
# iter:   2 15:02:40   -15.144487   -0.45  -1.42   +1.5,-0.0,+0.0
# iter:   3 15:03:14   -15.184351   -1.14  -1.46   +1.9,-0.0,+0.0
# iter:   4 15:03:49   -15.317624   -1.55  -1.56   +2.1,-0.0,+0.0
# iter:   5 15:04:23   -15.553106   -2.05  -1.68   +2.7,-0.0,+0.0
# iter:   6 15:04:58   -15.559307   -2.28  -2.07   +2.8,-0.0,+0.0
# iter:   7 15:05:33   -15.555886c  -2.79  -2.27   +2.8,-0.0,+0.0
# iter:   8 15:06:07   -15.554411c  -3.50  -2.63   +2.8,-0.0,-0.0
# iter:   9 15:06:42   -15.558385c  -3.15  -2.74   +2.9,-0.0,-0.0
# iter:  10 15:07:17   -15.556856c  -3.81  -2.61   +2.9,-0.0,-0.0
# iter:  11 15:07:51   -15.556856c  -4.52  -3.57   +2.9,-0.0,-0.0
# iter:  12 15:08:26   -15.556893c  -4.91  -3.62   +2.9,-0.0,-0.0
# iter:  13 15:09:01   -15.556909c  -5.12  -3.69   +2.9,-0.0,-0.0
# iter:  14 15:09:35   -15.556905c  -5.37  -3.76   +2.9,-0.0,-0.0
# iter:  15 15:10:10   -15.556900c  -5.67  -3.80   +2.9,-0.0,-0.0
# iter:  16 15:10:45   -15.556895c  -5.94  -3.82   +2.9,-0.0,-0.0
# iter:  17 15:11:19   -15.556901c  -6.23  -3.95   +2.9,-0.0,-0.0
# iter:  18 15:11:54   -15.556907c  -6.46  -3.96   +2.9,-0.0,-0.0
# iter:  19 15:12:28   -15.556911c  -6.54  -4.04c  +2.9,-0.0,-0.0
# iter:  20 15:13:03   -15.556910c  -6.85  -4.10c  +2.9,-0.0,-0.0
# iter:  21 15:13:37   -15.556907c  -6.84  -4.13c  +2.9,-0.0,-0.0
# iter:  22 15:14:11   -15.556907c  -7.37  -4.68c  +2.9,-0.0,-0.0
# iter:  23 15:14:46   -15.556906c  -7.79c -4.72c  +2.9,-0.0,-0.0
scf_steps: 23
energies:  # eV
  coulomb:          -3.548792
  zero:              0.060517
  xc:              -15.914562
  external:          0.000000
  kinetic:           3.850991
  spinorbit:         0.000000
  entropy:          -0.010120
  total:           -15.561966
  extrapolated:    -15.556906

dipole moment: [-5.034405, -8.953152, -9.692635]  # |e|*Ang

total magnetic moment: [2.911844, -0.001321, -0.000000]

local magnetic moments: [
  [ 2.609865,  0.000000, -0.000000],  # V  0
  [-0.017886,  0.019919, -0.000000],  # Br 1
  [-0.024472,  0.010855, -0.000000]]  # Br 2


Fermi level: -0.675 eV

kpt = [-0.417, -0.417, 0.000], weight = 0.007:
  Band      eig [eV]   occ [0-1]
     0       -65.438       1.000
   ...
    19        -5.120       1.000
    20        -4.983       1.000
    21        -4.920       1.000
    22        -4.869       1.000
    23        -4.789       1.000
    24        -1.716       1.000
    25        -1.226       0.996
    26        -1.189       0.994
    27        -0.058       0.002
    28         0.053       0.001
    29         0.425       0.000
    30         1.078       0.000
    31         1.152       0.000
    32         1.464       0.000
    33         1.596       0.000
    34         3.007       0.000
   ...
    41         6.174       0.000

kpt = [-0.417, -0.333, 0.000], weight = 0.007:
  Band      eig [eV]   occ [0-1]
     0       -65.438       1.000
   ...
    19        -5.204       1.000
    20        -5.074       1.000
    21        -4.985       1.000
    22        -4.919       1.000
    23        -4.716       1.000
    24        -1.543       1.000
    25        -1.267       0.997
    26        -1.218       0.996
    27        -0.100       0.003
    28        -0.003       0.001
    29         0.687       0.000
    30         0.994       0.000
    31         1.084       0.000
    32         1.391       0.000
    33         1.500       0.000
    34         3.413       0.000
   ...
    41         6.103       0.000

kpt = [-0.417, -0.250, 0.000], weight = 0.007:
  Band      eig [eV]   occ [0-1]
     0       -65.438       1.000
   ...
    19        -5.229       1.000
    20        -5.152       1.000
    21        -5.064       1.000
    22        -4.848       1.000
    23        -4.677       1.000
    24        -1.489       1.000
    25        -1.291       0.998
    26        -1.219       0.996
    27        -0.166       0.006
    28         0.019       0.001
    29         0.692       0.000
    30         0.952       0.000
    31         1.080       0.000
    32         1.350       0.000
    33         1.517       0.000
    34         3.669       0.000
   ...
    41         6.120       0.000
(only showing first 3 out of 144 k-points)

Gap: 0.853 eV
Transition (v -> c):
  (s=0, k=137, n=26, [0.50, -0.00, 0.00]) -> (s=0, k=99, n=27, [0.25, -0.17, 0.00])
# Writing to gsq-04.gpw (mode='')

---

timing:  # [seconds]
  Total: 817.055  # ━━━━━━━━━━━━━━━━━━━━━━━━━━━━━━━━━━━━━━━━━━━━━━━━━━━━━━━━━
  Init:   22.731  # ━╸
  SCF:   793.605  # ━━━━━━━━━━━━━━━━━━━━━━━━━━━━━━━━━━━━━━━━━━━━━━━━━━━━━━━╸

Max RSS: 762.855  # MiB
x RSS: 663.348  # MiB
