#  __  _  _
# | _ |_)|_||  |
# |__||  | ||/\| - 24.1.0

User:   s194113@n-62-29-5
Date:   Sun Apr 21 18:49:54 2024
Arch:   x86_64
Pid:    5518
CWD:    /zhome/87/8/147075/10302/10302_NM/VBr2/E_con
Python: 3.8.5
gpaw:   /zhome/87/8/147075/venv-name/gpaw/gpaw (10808453a8)
_gpaw:  /zhome/87/8/147075/venv-name/gpaw/
        _gpaw.cpython-38-x86_64-linux-gnu.so (10808453a8)
ase:    /zhome/87/8/147075/venv-name/ase/ase (version 3.23.0b1-c36115a2db)
numpy:  /zhome/87/8/147075/venv-name/lib/python3.8/site-packages/numpy (version 1.24.4)
scipy:  /zhome/87/8/147075/venv-name/lib/python3.8/site-packages/scipy (version 1.10.1)
libxc:  4.3.4
units:  Angstrom and eV
cores: 12
OpenMP: False
OMP_NUM_THREADS: 1

---
input parameters:
  kpts: 
    density: 6.0
    gamma: True
  magmoms: [[1, 0, 0], [0, 0, 0], [0, 0, 0]]
  mixer: 
    backend: 'pulay'
    beta: 0.05
    method: 'sum'
    nmaxold: 5
    weight: 100
  mode: 
    name: 'pw'
    ecut: 1000
    qspiral: array([0.23809524, 0.23809524, 0.        ])
  parallel: 
    kpt: None
    domain: 1
    band: 1
    order: 'kdb'
    stridebands: False
    augment_grids: False
    sl_auto: False
    sl_default: None
    sl_diagonalize: None
    sl_inverse_cholesky: None
    sl_lcao: None
    sl_lrtddft: None
    use_elpa: False
    elpasolver: '2stage'
    buffer_size: None
    gpu: False
  symmetry: 
    point_group: False
    time_reversal: False
  xc: 
    name: 'LDA'

#                        
#                        
#                        
#                        
#                        
#              Br        
#                        
#        V               
#          Br            
#                        
#                        
#                        
#                        
#                        

atoms: [  # symbols, positions [Ang] and initial magnetic moments
  [  V, [   0.000000,    0.000000,    7.513573], [ 1.000,  0.000,  0.000]], # 0
  [ Br, [   1.920000,    1.108513,    9.027147], [ 0.000,  0.000,  0.000]], # 1
  [ Br, [  -0.000000,    2.217025,    6.000000], [ 0.000,  0.000,  0.000]]] # 2

cell: [  # Ang
#     x            y            z
  [   3.840000,    0.000000,    0.000000],
  [  -1.920000,    3.325538,    0.000000],
  [   0.000000,   -0.000000,   15.027147]]

periodic: [True      , True      , False     ]
lengths:  [  3.840000,   3.840000,  15.027147]  # Ang
angles:   [ 90.000000,  90.000000, 120.000000]

symmetry:
  number of symmetries: 1
  rotations: [
    [[ 1,  0,  0], [ 0,  1,  0], [ 0,  0,  1]]]

bz sampling:
  number of bz points: 144
  number of ibz points: 144
  monkhorst-pack size: [12, 12, 1]
  monkhorst-pack shift: [0.041666666666666664, 0.041666666666666664, 0.0]
  points and weights: [
    [[ -0.41666667,  -0.41666667,   0.00000000], 0.00694444],  # 0
    [[ -0.41666667,  -0.33333333,   0.00000000], 0.00694444],  # 1
    [[ -0.41666667,  -0.25000000,   0.00000000], 0.00694444],  # 2
    [[ -0.41666667,  -0.16666667,   0.00000000], 0.00694444],  # 3
    [[ -0.41666667,  -0.08333333,   0.00000000], 0.00694444],  # 4
    [[ -0.41666667,  -0.00000000,   0.00000000], 0.00694444],  # 5
    [[ -0.41666667,   0.08333333,   0.00000000], 0.00694444],  # 6
    [[ -0.41666667,   0.16666667,   0.00000000], 0.00694444],  # 7
    [[ -0.41666667,   0.25000000,   0.00000000], 0.00694444],  # 8
    [[ -0.41666667,   0.33333333,   0.00000000], 0.00694444],  # 9
    # ...
    [[  0.50000000,   0.50000000,   0.00000000], 0.00694444]]  # 143

plane wave coefficients: 13840
cutoff: 1000.0 eV

spin-components: 4  # (non-collinear spins)
bands: 42
valence electrons: 27.0
spin-degeneracy: 1
dtype: complex128

memory:
    wave functions: 2_673_893_376  # bytes  (222_824_448 per core)

parallelization:
    kpt:    12
    domain: 1
    band:   1

density:
  components: 4
  grid points: [ 30  30 112]
  charge: 0.0  # |e|

potential:
  grid points: [ 30  30 112]

species:
  V:
    name: Vanadium
    id: 7939ce69e6bb5930668dfcf9bb1979c3
    Z: 23.0
    valence: 13
    core: 10
    charge: 0.0
    file: /zhome/86/d/1666/PAW/gpaw-setups-0.9.20000/V.LDA.gz
    compensation charges: {type: gauss,
                           rc: 0.37,
                           lmax: 2}
    cutoffs: {filter: 2.14,
              core: 0.96}
    valence states:
      #              energy  rcut
      - 3s(2.00)   -69.819   1.254
      - 4s(2.00)    -4.846   1.254
      - 3p(6.00)   -43.961   1.281
      - 4p(0.00)    -1.526   1.281
      - 3d(3.00)    -5.381   1.169
      -  d          21.830   1.169
  
    # Using partial waves for V as LCAO basis

  Br:
    name: Bromine
    id: 10a25bbcb3273ec7d8d7f6fc01d2618d
    Z: 35.0
    valence: 7
    core: 28
    charge: 0.0
    file: /zhome/86/d/1666/PAW/gpaw-setups-0.9.20000/Br.LDA.gz
    compensation charges: {type: gauss,
                           rc: 0.35,
                           lmax: 2}
    cutoffs: {filter: 1.98,
              core: 2.38}
    valence states:
      #              energy  rcut
      - 4s(2.00)   -20.306   1.111
      - 4p(5.00)    -8.003   1.111
      -  s           6.906   1.111
      -  p          19.208   1.111
      -  d           0.000   1.111
  
    # Using partial waves for Br as LCAO basis

Reference energy: -167392.690611  # eV

eigensolver:
  name: 'Davidson'
  niter: 2
  converge_bands: 'occupied'
Density mixing:
  Method: sum
  Backend: pulay
  Linear mixing parameter: 0.05
  old densities: 5
  Damping of long wavelength oscillations: 100
occupation numbers:
  Fermi-Dirac:
    width: 0.1000  # eV
  

poisson solver:
  ecut: 8000.0  # eV

xc functional:
  name: None

convergence criteria:
- Maximum [total energy] change in last 3 cyles: 0.0005 eV / valence electron
- Maximum integral of absolute [dens]ity change: 0.0001 electrons / valence electron
- Maximum integral of absolute [eigenst]ate change: 4e-08 eV^2 / valence electron
maximum number of iterations: 333

#      iter     time        total  log10-change:
#                          energy   eigst   dens
# iter:   1 18:50:50   -14.640590                  +1.0,+0.0,+0.0
# iter:   2 18:51:25   -15.165309   -0.03  -1.42   +1.4,-0.0,+0.0
# iter:   3 18:52:00   -15.236684   -0.85  -1.46   +1.7,-0.0,+0.0
# iter:   4 18:52:35   -15.364446   -1.39  -1.56   +2.0,-0.0,-0.0
# iter:   5 18:53:10   -15.580659   -1.94  -1.68   +2.5,-0.0,-0.0
# iter:   6 18:53:44   -15.582137   -2.16  -2.04   +2.6,-0.0,-0.0
# iter:   7 18:54:20   -15.583293c  -2.77  -2.26   +2.7,-0.0,+0.0
# iter:   8 18:54:55   -15.580943c  -3.19  -2.60   +2.6,-0.0,+0.0
# iter:   9 18:55:29   -15.583613c  -3.58  -2.72   +2.7,-0.0,+0.0
# iter:  10 18:56:04   -15.583272c  -3.78  -2.88   +2.7,-0.0,+0.0
# iter:  11 18:56:39   -15.583298c  -4.39  -3.62   +2.7,-0.0,+0.0
# iter:  12 18:57:14   -15.583323c  -4.73  -3.64   +2.7,-0.0,-0.0
# iter:  13 18:57:49   -15.583387c  -4.85  -3.66   +2.7,-0.0,+0.0
# iter:  14 18:58:23   -15.583378c  -5.18  -3.71   +2.7,-0.0,+0.0
# iter:  15 18:58:58   -15.583375c  -5.28  -3.97   +2.7,-0.0,-0.0
# iter:  16 18:59:32   -15.583378c  -5.58  -3.97   +2.7,-0.0,-0.0
# iter:  17 19:00:07   -15.583376c  -5.98  -4.30c  +2.7,-0.0,+0.0
# iter:  18 19:00:42   -15.583374c  -6.23  -4.54c  +2.7,-0.0,+0.0
# iter:  19 19:01:16   -15.583374c  -6.41  -4.47c  +2.7,-0.0,-0.0
# iter:  20 19:01:50   -15.583373c  -6.67  -4.67c  +2.7,-0.0,-0.0
# iter:  21 19:02:25   -15.583373c  -6.92  -4.58c  +2.7,-0.0,-0.0
# iter:  22 19:02:59   -15.583373c  -7.11  -4.89c  +2.7,-0.0,+0.0
# iter:  23 19:03:34   -15.583373c  -7.38  -5.16c  +2.7,-0.0,-0.0
# iter:  24 19:04:08   -15.583373c  -7.60c -5.20c  +2.7,-0.0,-0.0
scf_steps: 24
energies:  # eV
  coulomb:          -3.029180
  zero:              0.061248
  xc:              -15.736941
  external:          0.000000
  kinetic:           3.125839
  spinorbit:         0.000000
  entropy:          -0.008679
  total:           -15.587712
  extrapolated:    -15.583373

dipole moment: [-4.880128, -8.452840, -8.565902]  # |e|*Ang

total magnetic moment: [2.733243, -0.001154, -0.000000]

local magnetic moments: [
  [ 2.556490,  0.000000, -0.000000],  # V  0
  [-0.001075,  0.013290,  0.000000],  # Br 1
  [-0.000918,  0.013302,  0.000000]]  # Br 2


Fermi level: -0.749 eV

kpt = [-0.417, -49 eV

kpt = [-0.417, -0.417, 0.000], weight = 0.007:
  Band      eig [eV]   occ [0-1]
     0       -65.504       1.000
   ...
    19        -5.069       1.000
    20        -5.047       1.000
    21        -4.993       1.000
    22        -4.883       1.000
    23        -4.867       1.000
    24        -1.673       1.000
    25        -1.327       0.997
    26        -1.279       0.995
    27        -0.118       0.002
    28        -0.020       0.001
    29         0.622       0.000
    30         0.956       0.000
    31         0.985       0.000
    32         1.424       0.000
    33         1.425       0.000
    34         2.995       0.000
   ...
    41         6.209       0.000

kpt = [-0.417, -0.333, 0.000], weight = 0.007:
  Band      eig [eV]   occ [0-1]
     0       -65.504       1.000
   ...
    19        -5.123       1.000
    20        -4.994       1.000
    21        -4.890       1.000
    22        -4.818       1.000
    23        -4.748       1.000
    24        -1.691       1.000
    25        -1.405       0.999
    26        -1.284       0.995
    27        -0.183       0.003
    28         0.019       0.000
    29         0.678       0.000
    30         0.873       0.000
    31         0.989       0.000
    32         1.375       0.000
    33         1.469       0.000
    34         2.904       0.000
   ...
    41         5.714       0.000

kpt = [-0.417, -0.250, 0.000], weight = 0.007:
  Band      eig [eV]   occ [0-1]
     0       -65.504       1.000
   ...
    19        -5.119       1.000
    20        -4.954       1.000
    21        -4.883       1.000
    22        -4.752       1.000
    23        -4.612       1.000
    24        -1.592       1.000
    25        -1.531       1.000
    26        -1.264       0.994
    27        -0.162       0.003
    28        -0.063       0.001
    29         0.674       0.000
    30         0.758       0.000
    31         1.008       0.000
    32         1.330       0.000
    33         1.394       0.000
    34         3.122       0.000
   ...
    41         5.388       0.000
(only showing first 3 out of 144 k-points)

Gap: 0.856 eV
Transition (v -> c):
  (s=0, k=137, n=26, [0.50, -0.00, 0.00]) -> (s=0, k=54, n=27# Writing to gsq-20.gpw (mode='')

---

timing:  # [seconds]
  Total: 1715.004  # ━━━━━━━━━━━━━━━━━━━━━━━━━━━━━━━━━━━━━━━━━━━━━━━━━━━━━━━━
  Init:    22.839  # ╸
  SCF:    830.946  # ━━━━━━━━━━━━━━━━━━━━━━━━━━━

Max RSS: 1360.508  # MiB
x RSS: 1216.934  # MiB
