#  __  _  _
# | _ |_)|_||  |
# |__||  | ||/\| - 24.1.0

User:   s194113@n-62-29-5
Date:   Sun Apr 21 15:28:15 2024
Arch:   x86_64
Pid:    5518
CWD:    /zhome/87/8/147075/10302/10302_NM/VBr2/E_con
Python: 3.8.5
gpaw:   /zhome/87/8/147075/venv-name/gpaw/gpaw (10808453a8)
_gpaw:  /zhome/87/8/147075/venv-name/gpaw/
        _gpaw.cpython-38-x86_64-linux-gnu.so (10808453a8)
ase:    /zhome/87/8/147075/venv-name/ase/ase (version 3.23.0b1-c36115a2db)
numpy:  /zhome/87/8/147075/venv-name/lib/python3.8/site-packages/numpy (version 1.24.4)
scipy:  /zhome/87/8/147075/venv-name/lib/python3.8/site-packages/scipy (version 1.10.1)
libxc:  4.3.4
units:  Angstrom and eV
cores: 12
OpenMP: False
OMP_NUM_THREADS: 1

---
input parameters:
  kpts: 
    density: 6.0
    gamma: True
  magmoms: [[1, 0, 0], [0, 0, 0], [0, 0, 0]]
  mixer: 
    backend: 'pulay'
    beta: 0.05
    method: 'sum'
    nmaxold: 5
    weight: 100
  mode: 
    name: 'pw'
    ecut: 1000
    qspiral: array([0.3, 0. , 0. ])
  parallel: 
    kpt: None
    domain: 1
    band: 1
    order: 'kdb'
    stridebands: False
    augment_grids: False
    sl_auto: False
    sl_default: None
    sl_diagonalize: None
    sl_inverse_cholesky: None
    sl_lcao: None
    sl_lrtddft: None
    use_elpa: False
    elpasolver: '2stage'
    buffer_size: None
    gpu: False
  symmetry: 
    point_group: False
    time_reversal: False
  xc: 
    name: 'LDA'

#                        
#                        
#                        
#                        
#                        
#              Br        
#                        
#        V               
#          Br            
#                        
#                        
#                        
#                        
#                        

atoms: [  # symbols, positions [Ang] and initial magnetic moments
  [  V, [   0.000000,    0.000000,    7.513573], [ 1.000,  0.000,  0.000]], # 0
  [ Br, [   1.920000,    1.108513,    9.027147], [ 0.000,  0.000,  0.000]], # 1
  [ Br, [  -0.000000,    2.217025,    6.000000], [ 0.000,  0.000,  0.000]]] # 2

cell: [  # Ang
#     x            y            z
  [   3.840000,    0.000000,    0.000000],
  [  -1.920000,    3.325538,    0.000000],
  [   0.000000,   -0.000000,   15.027147]]

periodic: [True      , True      , False     ]
lengths:  [  3.840000,   3.840000,  15.027147]  # Ang
angles:   [ 90.000000,  90.000000, 120.000000]

symmetry:
  number of symmetries: 1
  rotations: [
    [[ 1,  0,  0], [ 0,  1,  0], [ 0,  0,  1]]]

bz sampling:
  number of bz points: 144
  number of ibz points: 144
  monkhorst-pack size: [12, 12, 1]
  monkhorst-pack shift: [0.041666666666666664, 0.041666666666666664, 0.0]
  points and weights: [
    [[ -0.41666667,  -0.41666667,   0.00000000], 0.00694444],  # 0
    [[ -0.41666667,  -0.33333333,   0.00000000], 0.00694444],  # 1
    [[ -0.41666667,  -0.25000000,   0.00000000], 0.00694444],  # 2
    [[ -0.41666667,  -0.16666667,   0.00000000], 0.00694444],  # 3
    [[ -0.41666667,  -0.08333333,   0.00000000], 0.00694444],  # 4
    [[ -0.41666667,  -0.00000000,   0.00000000], 0.00694444],  # 5
    [[ -0.41666667,   0.08333333,   0.00000000], 0.00694444],  # 6
    [[ -0.41666667,   0.16666667,   0.00000000], 0.00694444],  # 7
    [[ -0.41666667,   0.25000000,   0.00000000], 0.00694444],  # 8
    [[ -0.41666667,   0.33333333,   0.00000000], 0.00694444],  # 9
    # ...
    [[  0.50000000,   0.50000000,   0.00000000], 0.00694444]]  # 143

plane wave coefficients: 13840
cutoff: 1000.0 eV

spin-components: 4  # (non-collinear spins)
bands: 42
valence electrons: 27.0
spin-degeneracy: 1
dtype: complex128

memory:
    wave functions: 2_673_893_376  # bytes  (222_824_448 per core)

parallelization:
    kpt:    12
    domain: 1
    band:   1

density:
  components: 4
  grid points: [ 30  30 112]
  charge: 0.0  # |e|

potential:
  grid points: [ 30  30 112]

species:
  V:
    name: Vanadium
    id: 7939ce69e6bb5930668dfcf9bb1979c3
    Z: 23.0
    valence: 13
    core: 10
    charge: 0.0
    file: /zhome/86/d/1666/PAW/gpaw-setups-0.9.20000/V.LDA.gz
    compensation charges: {type: gauss,
                           rc: 0.37,
                           lmax: 2}
    cutoffs: {filter: 2.14,
              core: 0.96}
    valence states:
      #              energy  rcut
      - 3s(2.00)   -69.819   1.254
      - 4s(2.00)    -4.846   1.254
      - 3p(6.00)   -43.961   1.281
      - 4p(0.00)    -1.526   1.281
      - 3d(3.00)    -5.381   1.169
      -  d          21.830   1.169
  
    # Using partial waves for V as LCAO basis

  Br:
    name: Bromine
    id: 10a25bbcb3273ec7d8d7f6fc01d2618d
    Z: 35.0
    valence: 7
    core: 28
    charge: 0.0
    file: /zhome/86/d/1666/PAW/gpaw-setups-0.9.20000/Br.LDA.gz
    compensation charges: {type: gauss,
                           rc: 0.35,
                           lmax: 2}
    cutoffs: {filter: 1.98,
              core: 2.38}
    valence states:
      #              energy  rcut
      - 4s(2.00)   -20.306   1.111
      - 4p(5.00)    -8.003   1.111
      -  s           6.906   1.111
      -  p          19.208   1.111
      -  d           0.000   1.111
  
    # Using partial waves for Br as LCAO basis

Reference energy: -167392.690611  # eV

eigensolver:
  name: 'Davidson'
  niter: 2
  converge_bands: 'occupied'
Density mixing:
  Method: sum
  Backend: pulay
  Linear mixing parameter: 0.05
  old densities: 5
  Damping of long wavelength oscillations: 100
occupation numbers:
  Fermi-Dirac:
    width: 0.1000  # eV
  

poisson solver:
  ecut: 8000.0  # eV

xc functional:
  name: None

convergence criteria:
- Maximum [total energy] change in last 3 cyles: 0.0005 eV / valence electron
- Maximum integral of absolute [dens]ity change: 0.0001 electrons / valence electron
- Maximum integral of absolute [eigenst]ate change: 4e-08 eV^2 / valence electron
maximum number of iterations: 333

#      iter     time        total  log10-change:
#                          energy   eigst   dens
# iter:   1 15:29:11   -14.819662                  +1.0,+0.0,+0.0
# iter:   2 15:29:46   -15.162147   -0.25  -1.42   +1.5,-0.0,+0.0
# iter:   3 15:30:21   -15.212193   -1.02  -1.46   +1.8,-0.0,+0.0
# iter:   4 15:30:55   -15.339550   -1.50  -1.56   +2.1,-0.0,+0.0
# iter:   5 15:31:30   -15.567239   -2.01  -1.68   +2.6,-0.0,+0.0
# iter:   6 15:32:05   -15.569528   -2.29  -2.06   +2.7,-0.0,+0.0
# iter:   7 15:32:40   -15.569957c  -2.80  -2.25   +2.8,-0.0,-0.0
# iter:   8 15:33:15   -15.567651c  -3.31  -2.59   +2.7,-0.0,+0.0
# iter:   9 15:33:50   -15.570649c  -3.58  -2.73   +2.8,-0.0,-0.0
# iter:  10 15:34:24   -15.570094c  -3.70  -2.75   +2.8,-0.0,-0.0
# iter:  11 15:34:59   -15.570112c  -4.44  -3.60   +2.8,-0.0,+0.0
# iter:  12 15:35:33   -15.570103c  -4.76  -3.57   +2.8,-0.0,+0.0
# iter:  13 15:36:08   -15.570115c  -5.11  -3.56   +2.8,-0.0,+0.0
# iter:  14 15:36:43   -15.570153c  -5.36  -3.75   +2.8,-0.0,+0.0
# iter:  15 15:37:17   -15.570179c  -5.51  -3.77   +2.8,-0.0,+0.0
# iter:  16 15:37:51   -15.570172c  -5.60  -3.94   +2.8,-0.0,+0.0
# iter:  17 15:38:26   -15.570171c  -5.92  -3.91   +2.8,-0.0,+0.0
# iter:  18 15:39:00   -15.570175c  -6.28  -4.30c  +2.8,-0.0,+0.0
# iter:  19 15:39:35   -15.570174c  -6.58  -4.33c  +2.8,-0.0,+0.0
# iter:  20 15:40:09   -15.570176c  -6.85  -4.42c  +2.8,-0.0,+0.0
# iter:  21 15:40:44   -15.570176c  -7.04  -4.60c  +2.8,-0.0,-0.0
# iter:  22 15:41:18   -15.570176c  -7.29  -4.82c  +2.8,-0.0,-0.0
# iter:  23 15:41:52   -15.570176c  -7.59c -4.87c  +2.8,-0.0,+0.0
scf_steps: 23
energies:  # eV
  coulomb:          -3.286096
  zero:              0.061010
  xc:              -15.823686
  external:          0.000000
  kinetic:           3.483314
  spinorbit:         0.000000
  entropy:          -0.009435
  total:           -15.574893
  extrapolated:    -15.570176

dipole moment: [-4.876694, -8.806162, -9.206093]  # |e|*Ang

total magnetic moment: [2.831595, -0.001435, 0.000000]

local magnetic moments: [
  [ 2.582639,  0.000000,  0.000000],  # V  0
  [-0.005845,  0.020892, -0.000000],  # Br 1
  [-0.018063,  0.012015, -0.000000]]  # Br 2


Fermi level: -0.716 eV

kpt = [-0.417, -0.417, 0.000], weight = 0.007:
  Band      eig [eV]   occ [0-1]
     0       -65.472       1.000
   ...
    19        -5.118       1.000
    20        -4.964       1.000
    21        -4.880       1.000
    22        -4.778       1.000
    23        -4.764       1.000
    24        -1.726       1.000
    25        -1.303       0.997
    26        -1.214       0.993
    27        -0.079       0.002
    28         0.000       0.001
    29         0.495       0.000
    30         0.968       0.000
    31         1.114       0.000
    32         1.437       0.000
    33         1.502       0.000
    34         2.939       0.000
   ...
    41         6.249       0.000

kpt = [-0.417, -0.333, 0.000], weight = 0.007:
  Band      eig [eV]   occ [0-1]
     0       -65.472       1.000
   ...
    19        -5.150       1.000
    20        -5.043       1.000
    21        -4.920       1.000
    22        -4.841       1.000
    23        -4.654       1.000
    24        -1.588       1.000
    25        -1.318       0.998
    26        -1.271       0.996
    27        -0.135       0.003
    28        -0.034       0.001
    29         0.690       0.000
    30         0.966       0.000
    31         0.988       0.000
    32         1.352       0.000
    33         1.422       0.000
    34         3.256       0.000
   ...
    41         6.227       0.000

kpt = [-0.417, -0.250, 0.000], weight = 0.007:
  Band      eig [eV]   occ [0-1]
     0       -65.472       1.000
   ...
    19        -5.204       1.000
    20        -5.173       1.000
    21        -4.976       1.000
    22        -4.756       1.000
    23        -4.588       1.000
    24        -1.473       0.999
    25        -1.370       0.999
    26        -1.284       0.997
    27        -0.214       0.007
    28        -0.040       0.001
    29         0.703       0.000
    30         0.879       0.000
    31         0.994       0.000
    32         1.262       0.000
    33         1.431       0.000
    34         3.656       0.000
   ...
    41         5.726       0.000
(only showing first 3 out of 144 k-points)

Gap: 0.837 eV
Transition (v -> c):
  (s=0, k=137, n=26, [0.50, -0.00, 0.00]) -> (s=0, k=67, n=27, [-0.00, 0.17, 0.00])
# Writing to gsq-06.gpw (mode='')

---

timing:  # [seconds]
  Total: 817.292  # ━━━━━━━━━━━━━━━━━━━━━━━━━━━━━━━━━━━━━━━━━━━━━━━━━━━━━━━━━
  Init:   22.788  # ━╸
  SCF:   793.783  # ━━━━━━━━━━━━━━━━━━━━━━━━━━━━━━━━━━━━━━━━━━━━━━━━━━━━━━━╸

Max RSS: 798.094  # MiB

Max RSS: 689.332  # MiB
━━━╸

Max RSS: 635.910  # MiB
