#  __  _  _
# | _ |_)|_||  |
# |__||  | ||/\| - 24.1.0

User:   s194113@n-62-29-5
Date:   Sun Apr 21 19:31:15 2024
Arch:   x86_64
Pid:    5518
CWD:    /zhome/87/8/147075/10302/10302_NM/VBr2/E_con
Python: 3.8.5
gpaw:   /zhome/87/8/147075/venv-name/gpaw/gpaw (10808453a8)
_gpaw:  /zhome/87/8/147075/venv-name/gpaw/
        _gpaw.cpython-38-x86_64-linux-gnu.so (10808453a8)
ase:    /zhome/87/8/147075/venv-name/ase/ase (version 3.23.0b1-c36115a2db)
numpy:  /zhome/87/8/147075/venv-name/lib/python3.8/site-packages/numpy (version 1.24.4)
scipy:  /zhome/87/8/147075/venv-name/lib/python3.8/site-packages/scipy (version 1.10.1)
libxc:  4.3.4
units:  Angstrom and eV
cores: 12
OpenMP: False
OMP_NUM_THREADS: 1

---
input parameters:
  kpts: 
    density: 6.0
    gamma: True
  magmoms: [[1, 0, 0], [0, 0, 0], [0, 0, 0]]
  mixer: 
    backend: 'pulay'
    beta: 0.05
    method: 'sum'
    nmaxold: 5
    weight: 100
  mode: 
    name: 'pw'
    ecut: 1000
    qspiral: array([0.16666667, 0.16666667, 0.        ])
  parallel: 
    kpt: None
    domain: 1
    band: 1
    order: 'kdb'
    stridebands: False
    augment_grids: False
    sl_auto: False
    sl_default: None
    sl_diagonalize: None
    sl_inverse_cholesky: None
    sl_lcao: None
    sl_lrtddft: None
    use_elpa: False
    elpasolver: '2stage'
    buffer_size: None
    gpu: False
  symmetry: 
    point_group: False
    time_reversal: False
  xc: 
    name: 'LDA'

#                        
#                        
#                        
#                        
#                        
#              Br        
#                        
#        V               
#          Br            
#                        
#                        
#                        
#                        
#                        

atoms: [  # symbols, positions [Ang] and initial magnetic moments
  [  V, [   0.000000,    0.000000,    7.513573], [ 1.000,  0.000,  0.000]], # 0
  [ Br, [   1.920000,    1.108513,    9.027147], [ 0.000,  0.000,  0.000]], # 1
  [ Br, [  -0.000000,    2.217025,    6.000000], [ 0.000,  0.000,  0.000]]] # 2

cell: [  # Ang
#     x            y            z
  [   3.840000,    0.000000,    0.000000],
  [  -1.920000,    3.325538,    0.000000],
  [   0.000000,   -0.000000,   15.027147]]

periodic: [True      , True      , False     ]
lengths:  [  3.840000,   3.840000,  15.027147]  # Ang
angles:   [ 90.000000,  90.000000, 120.000000]

symmetry:
  number of symmetries: 1
  rotations: [
    [[ 1,  0,  0], [ 0,  1,  0], [ 0,  0,  1]]]

bz sampling:
  number of bz points: 144
  number of ibz points: 144
  monkhorst-pack size: [12, 12, 1]
  monkhorst-pack shift: [0.041666666666666664, 0.041666666666666664, 0.0]
  points and weights: [
    [[ -0.41666667,  -0.41666667,   0.00000000], 0.00694444],  # 0
    [[ -0.41666667,  -0.33333333,   0.00000000], 0.00694444],  # 1
    [[ -0.41666667,  -0.25000000,   0.00000000], 0.00694444],  # 2
    [[ -0.41666667,  -0.16666667,   0.00000000], 0.00694444],  # 3
    [[ -0.41666667,  -0.08333333,   0.00000000], 0.00694444],  # 4
    [[ -0.41666667,  -0.00000000,   0.00000000], 0.00694444],  # 5
    [[ -0.41666667,   0.08333333,   0.00000000], 0.00694444],  # 6
    [[ -0.41666667,   0.16666667,   0.00000000], 0.00694444],  # 7
    [[ -0.41666667,   0.25000000,   0.00000000], 0.00694444],  # 8
    [[ -0.41666667,   0.33333333,   0.00000000], 0.00694444],  # 9
    # ...
    [[  0.50000000,   0.50000000,   0.00000000], 0.00694444]]  # 143

plane wave coefficients: 13840
cutoff: 1000.0 eV

spin-components: 4  # (non-collinear spins)
bands: 42
valence electrons: 27.0
spin-degeneracy: 1
dtype: complex128

memory:
    wave functions: 2_673_893_376  # bytes  (222_824_448 per core)

parallelization:
    kpt:    12
    domain: 1
    band:   1

density:
  components: 4
  grid points: [ 30  30 112]
  charge: 0.0  # |e|

potential:
  grid points: [ 30  30 112]

species:
  V:
    name: Vanadium
    id: 7939ce69e6bb5930668dfcf9bb1979c3
    Z: 23.0
    valence: 13
    core: 10
    charge: 0.0
    file: /zhome/86/d/1666/PAW/gpaw-setups-0.9.20000/V.LDA.gz
    compensation charges: {type: gauss,
                           rc: 0.37,
                           lmax: 2}
    cutoffs: {filter: 2.14,
              core: 0.96}
    valence states:
      #              energy  rcut
      - 3s(2.00)   -69.819   1.254
      - 4s(2.00)    -4.846   1.254
      - 3p(6.00)   -43.961   1.281
      - 4p(0.00)    -1.526   1.281
      - 3d(3.00)    -5.381   1.169
      -  d          21.830   1.169
  
    # Using partial waves for V as LCAO basis

  Br:
    name: Bromine
    id: 10a25bbcb3273ec7d8d7f6fc01d2618d
    Z: 35.0
    valence: 7
    core: 28
    charge: 0.0
    file: /zhome/86/d/1666/PAW/gpaw-setups-0.9.20000/Br.LDA.gz
    compensation charges: {type: gauss,
                           rc: 0.35,
                           lmax: 2}
    cutoffs: {filter: 1.98,
              core: 2.38}
    valence states:
      #              energy  rcut
      - 4s(2.00)   -20.306   1.111
      - 4p(5.00)    -8.003   1.111
      -  s           6.906   1.111
      -  p          19.208   1.111
      -  d           0.000   1.111
  
    # Using partial waves for Br as LCAO basis

Reference energy: -167392.690611  # eV

eigensolver:
  name: 'Davidson'
  niter: 2
  converge_bands: 'occupied'
Density mixing:
  Method: sum
  Backend: pulay
  Linear mixing parameter: 0.05
  old densities: 5
  Damping of long wavelength oscillations: 100
occupation numbers:
  Fermi-Dirac:
    width: 0.1000  # eV
  

poisson solver:
  ecut: 8000.0  # eV

xc functional:
  name: None

convergence criteria:
- Maximum [total energy] change in last 3 cyles: 0.0005 eV / valence electron
- Maximum integral of absolute [dens]ity change: 0.0001 electrons / valence electron
- Maximum integral of absolute [eigenst]ate change: 4e-08 eV^2 / valence electron
maximum number of iterations: 333

#      iter     time        total  log10-change:
#                          energy   eigst   dens
# iter:   1 19:32:11   -14.830088                  +1.0,+0.0,+0.0
# iter:   2 19:32:46   -15.161122   -0.26  -1.42   +1.5,-0.0,+0.0
# iter:   3 19:33:21   -15.212207   -1.02  -1.46   +1.8,-0.0,+0.0
# iter:   4 19:33:56   -15.342198   -1.49  -1.56   +2.1,-0.0,-0.0
# iter:   5 19:34:31   -15.564742   -2.01  -1.68   +2.6,-0.0,-0.0
# iter:   6 19:35:06   -15.570204   -2.27  -2.07   +2.7,-0.0,-0.0
# iter:   7 19:35:41   -15.568562c  -2.81  -2.26   +2.8,-0.0,-0.0
# iter:   8 19:36:15   -15.567238c  -3.41  -2.63   +2.8,-0.0,-0.0
# iter:   9 19:36:50   -15.570765c  -3.39  -2.74   +2.8,-0.0,-0.0
# iter:  10 19:37:25   -15.569555c  -3.81  -2.63   +2.8,-0.0,-0.0
# iter:  11 19:38:00   -15.569559c  -4.48  -3.59   +2.8,-0.0,-0.0
# iter:  12 19:38:34   -15.569602c  -4.84  -3.63   +2.8,-0.0,-0.0
# iter:  13 19:39:09   -15.569620c  -5.07  -3.67   +2.8,-0.0,-0.0
# iter:  14 19:39:44   -15.569617c  -5.35  -3.76   +2.8,-0.0,-0.0
# iter:  15 19:40:18   -15.569611c  -5.61  -3.78   +2.8,-0.0,-0.0
# iter:  16 19:40:53   -15.569618c  -5.79  -3.82   +2.8,-0.0,-0.0
# iter:  17 19:41:27   -15.569615c  -6.14  -4.09c  +2.8,-0.0,-0.0
# iter:  18 19:42:02   -15.569619c  -6.40  -4.14c  +2.8,-0.0,-0.0
# iter:  19 19:42:37   -15.569624c  -6.52  -4.18c  +2.8,-0.0,-0.0
# iter:  20 19:43:11   -15.569622c  -6.76  -4.27c  +2.8,-0.0,-0.0
# iter:  21 19:43:46   -15.569624c  -6.53  -4.30c  +2.8,-0.0,-0.0
# iter:  22 19:44:21   -15.569621c  -7.10  -4.33c  +2.8,-0.0,-0.0
# iter:  23 19:44:55   -15.569621c  -7.55c -4.98c  +2.8,-0.0,-0.0
scf_steps: 23
energies:  # eV
  coulomb:          -3.286113
  zero:              0.061266
  xc:              -15.830131
  external:          0.000000
  kinetic:           3.489958
  spinorbit:         0.000000
  entropy:          -0.009204
  total:           -15.574223
  extrapolated:    -15.569621

dipole moment: [-5.022213, -8.698858, -9.250677]  # |e|*Ang

total magnetic moment: [2.839941, -0.001692, -0.000000]

local magnetic moments: [
  [ 2.585310, -0.000000, -0.000000],  # V  0
  [-0.011358,  0.019536, -0.000000],  # Br 1
  [-0.011240,  0.019604, -0.000000]]  # Br 2


Fermi level: -0.706 eV

kpt = [-0.417, -0.417, 0.000], weight = 0.007:
  Band      eig [eV]   occ [0-1]
     0       -65.469       1.000
   ...
    19        -5.072       1.000
    20        -4.983       1.000
    21        -4.920       1.000
    22        -4.886       1.000
    23        -4.823       1.000
    24        -1.734       1.000
    25        -1.261       0.996
    26        -1.234       0.995
    27        -0.030       0.001
    28        -0.010       0.001
    29         0.511       0.000
    30         1.065       0.000
    31         1.066       0.000
    32         1.463       0.000
    33         1.527       0.000
    34         2.897       0.000
   ...
    41         6.096       0.000

kpt = [-0.417, -0.333, 0.000], weight = 0.007:
  Band      eig [eV]   occ [0-1]
     0       -65.469       1.000
   ...
    19        -5.087       1.000
    20        -5.050       1.000
    21        -4.972       1.000
    22        -4.864       1.000
    23        -4.826       1.000
    24        -1.632       1.000
    25        -1.343       0.998
    26        -1.235       0.995
    27        -0.110       0.003
    28         0.002       0.001
    29         0.690       0.000
    30         0.930       0.000
    31         1.069       0.000
    32         1.428       0.000
    33         1.490       0.000
    34         3.051       0.000
   ...
    41         6.177       0.000

kpt = [-0.417, -0.250, 0.000], weight = 0.007:
  Band      eig [eV]   occ [0-1]
     0       -65.469       1.000
   ...
    19        -5.179       1.000
    20        -5.100       1.000
    21        -5.076       1.000
    22        -4.784       1.000
    23        -4.733       1.000
    24        -1.537       1.000
    25        -1.413       0.999
    26        -1.227       0.995
    27        -0.147       0.004
    28        -0.024       0.001
    29         0.697       0.000
    30         0.856       0.000
    31         1.067       0.000
    32         1.367       0.000
    33         1.488       0.000
    34         3.346       0.000
   ...
    41         5.635       0.000
(only showing first 3 out of 144 k-points)

Gap: 0.881 eV
Transition (v -> c):
  (s=0, k=137, n=26, [0.50, -0.00, 0.00]) -> (s=0, k=76, n=27, [0.08, -0.08, 0.00])
# Writing to gsq-23.gpw (mode='')

---

timing:  # [seconds]
  Total: 820.097  # ━━━━━━━━━━━━━━━━━━━━━━━━━━━━━━━━━━━━━━━━━━━━━━━━━━━━━━━━━
  Init:   22.687  # ━╸
  SCF:   796.693  # ━━━━━━━━━━━━━━━━━━━━━━━━━━━━━━━━━━━━━━━━━━━━━━━━━━━━━━━╸

Max RSS: 1360.508  # MiB
 RSS: 1219.422  # MiB
