#  __  _  _
# | _ |_)|_||  |
# |__||  | ||/\| - 24.1.0

User:   s194113@n-62-29-5
Date:   Sun Apr 21 20:12:04 2024
Arch:   x86_64
Pid:    5518
CWD:    /zhome/87/8/147075/10302/10302_NM/VBr2/E_con
Python: 3.8.5
gpaw:   /zhome/87/8/147075/venv-name/gpaw/gpaw (10808453a8)
_gpaw:  /zhome/87/8/147075/venv-name/gpaw/
        _gpaw.cpython-38-x86_64-linux-gnu.so (10808453a8)
ase:    /zhome/87/8/147075/venv-name/ase/ase (version 3.23.0b1-c36115a2db)
numpy:  /zhome/87/8/147075/venv-name/lib/python3.8/site-packages/numpy (version 1.24.4)
scipy:  /zhome/87/8/147075/venv-name/lib/python3.8/site-packages/scipy (version 1.10.1)
libxc:  4.3.4
units:  Angstrom and eV
cores: 12
OpenMP: False
OMP_NUM_THREADS: 1

---
input parameters:
  kpts: 
    density: 6.0
    gamma: True
  magmoms: [[1, 0, 0], [0, 0, 0], [0, 0, 0]]
  mixer: 
    backend: 'pulay'
    beta: 0.05
    method: 'sum'
    nmaxold: 5
    weight: 100
  mode: 
    name: 'pw'
    ecut: 1000
    qspiral: array([0.0952381, 0.0952381, 0.       ])
  parallel: 
    kpt: None
    domain: 1
    band: 1
    order: 'kdb'
    stridebands: False
    augment_grids: False
    sl_auto: False
    sl_default: None
    sl_diagonalize: None
    sl_inverse_cholesky: None
    sl_lcao: None
    sl_lrtddft: None
    use_elpa: False
    elpasolver: '2stage'
    buffer_size: None
    gpu: False
  symmetry: 
    point_group: False
    time_reversal: False
  xc: 
    name: 'LDA'

#                        
#                        
#                        
#                        
#                        
#              Br        
#                        
#        V               
#          Br            
#                        
#                        
#                        
#                        
#                        

atoms: [  # symbols, positions [Ang] and initial magnetic moments
  [  V, [   0.000000,    0.000000,    7.513573], [ 1.000,  0.000,  0.000]], # 0
  [ Br, [   1.920000,    1.108513,    9.027147], [ 0.000,  0.000,  0.000]], # 1
  [ Br, [  -0.000000,    2.217025,    6.000000], [ 0.000,  0.000,  0.000]]] # 2

cell: [  # Ang
#     x            y            z
  [   3.840000,    0.000000,    0.000000],
  [  -1.920000,    3.325538,    0.000000],
  [   0.000000,   -0.000000,   15.027147]]

periodic: [True      , True      , False     ]
lengths:  [  3.840000,   3.840000,  15.027147]  # Ang
angles:   [ 90.000000,  90.000000, 120.000000]

symmetry:
  number of symmetries: 1
  rotations: [
    [[ 1,  0,  0], [ 0,  1,  0], [ 0,  0,  1]]]

bz sampling:
  number of bz points: 144
  number of ibz points: 144
  monkhorst-pack size: [12, 12, 1]
  monkhorst-pack shift: [0.041666666666666664, 0.041666666666666664, 0.0]
  points and weights: [
    [[ -0.41666667,  -0.41666667,   0.00000000], 0.00694444],  # 0
    [[ -0.41666667,  -0.33333333,   0.00000000], 0.00694444],  # 1
    [[ -0.41666667,  -0.25000000,   0.00000000], 0.00694444],  # 2
    [[ -0.41666667,  -0.16666667,   0.00000000], 0.00694444],  # 3
    [[ -0.41666667,  -0.08333333,   0.00000000], 0.00694444],  # 4
    [[ -0.41666667,  -0.00000000,   0.00000000], 0.00694444],  # 5
    [[ -0.41666667,   0.08333333,   0.00000000], 0.00694444],  # 6
    [[ -0.41666667,   0.16666667,   0.00000000], 0.00694444],  # 7
    [[ -0.41666667,   0.25000000,   0.00000000], 0.00694444],  # 8
    [[ -0.41666667,   0.33333333,   0.00000000], 0.00694444],  # 9
    # ...
    [[  0.50000000,   0.50000000,   0.00000000], 0.00694444]]  # 143

plane wave coefficients: 13840
cutoff: 1000.0 eV

spin-components: 4  # (non-collinear spins)
bands: 42
valence electrons: 27.0
spin-degeneracy: 1
dtype: complex128

memory:
    wave functions: 2_673_893_376  # bytes  (222_824_448 per core)

parallelization:
    kpt:    12
    domain: 1
    band:   1

density:
  components: 4
  grid points: [ 30  30 112]
  charge: 0.0  # |e|

potential:
  grid points: [ 30  30 112]

species:
  V:
    name: Vanadium
    id: 7939ce69e6bb5930668dfcf9bb1979c3
    Z: 23.0
    valence: 13
    core: 10
    charge: 0.0
    file: /zhome/86/d/1666/PAW/gpaw-setups-0.9.20000/V.LDA.gz
    compensation charges: {type: gauss,
                           rc: 0.37,
                           lmax: 2}
    cutoffs: {filter: 2.14,
              core: 0.96}
    valence states:
      #              energy  rcut
      - 3s(2.00)   -69.819   1.254
      - 4s(2.00)    -4.846   1.254
      - 3p(6.00)   -43.961   1.281
      - 4p(0.00)    -1.526   1.281
      - 3d(3.00)    -5.381   1.169
      -  d          21.830   1.169
  
    # Using partial waves for V as LCAO basis

  Br:
    name: Bromine
    id: 10a25bbcb3273ec7d8d7f6fc01d2618d
    Z: 35.0
    valence: 7
    core: 28
    charge: 0.0
    file: /zhome/86/d/1666/PAW/gpaw-setups-0.9.20000/Br.LDA.gz
    compensation charges: {type: gauss,
                           rc: 0.35,
                           lmax: 2}
    cutoffs: {filter: 1.98,
              core: 2.38}
    valence states:
      #              energy  rcut
      - 4s(2.00)   -20.306   1.111
      - 4p(5.00)    -8.003   1.111
      -  s           6.906   1.111
      -  p          19.208   1.111
      -  d           0.000   1.111
  
    # Using partial waves for Br as LCAO basis

Reference energy: -167392.690611  # eV

eigensolver:
  name: 'Davidson'
  niter: 2
  converge_bands: 'occupied'
Density mixing:
  Method: sum
  Backend: pulay
  Linear mixing parameter: 0.05
  old densities: 5
  Damping of long wavelength oscillations: 100
occupation numbers:
  Fermi-Dirac:
    width: 0.1000  # eV
  

poisson solver:
  ecut: 8000.0  # eV

xc functional:
  name: None

convergence criteria:
- Maximum [total energy] change in last 3 cyles: 0.0005 eV / valence electron
- Maximum integral of absolute [dens]ity change: 0.0001 electrons / valence electron
- Maximum integral of absolute [eigenst]ate change: 4e-08 eV^2 / valence electron
maximum number of iterations: 333

#      iter     time        total  log10-change:
#                          energy   eigst   dens
# iter:   1 20:13:00   -14.930196                  +1.0,+0.0,+0.0
# iter:   2 20:13:34   -15.135873   -0.51  -1.42   +1.5,-0.0,-0.0
# iter:   3 20:14:09   -15.173609   -1.16  -1.46   +1.9,-0.0,-0.0
# iter:   4 20:14:43   -15.310622   -1.55  -1.56   +2.2,-0.0,-0.0
# iter:   5 20:15:18   -15.547432   -2.06  -1.68   +2.7,-0.0,+0.0
# iter:   6 20:15:52   -15.556550   -2.24  -2.07   +2.8,-0.0,+0.0
# iter:   7 20:16:27   -15.550971c  -2.71  -2.28   +2.9,-0.0,+0.0
# iter:   8 20:17:01   -15.549565c  -3.52  -2.62   +2.9,-0.0,+0.0
# iter:   9 20:17:36   -15.553898c  -3.10  -2.75   +2.9,-0.0,+0.0
# iter:  10 20:18:10   -15.552034c  -3.78  -2.60   +2.9,-0.0,-0.0
# iter:  11 20:18:44   -15.552031c  -4.46  -3.53   +2.9,-0.0,+0.0
# iter:  12 20:19:18   -15.552057c  -4.89  -3.61   +2.9,-0.0,+0.0
# iter:  13 20:19:53   -15.552083c  -4.86  -3.70   +2.9,-0.0,+0.0
# iter:  14 20:20:27   -15.552072c  -5.35  -3.88   +2.9,-0.0,+0.0
# iter:  15 20:21:01   -15.552072c  -5.67  -4.27c  +2.9,-0.0,+0.0
# iter:  16 20:21:36   -15.552078c  -5.93  -4.33c  +2.9,-0.0,+0.0
# iter:  17 20:22:10   -15.552076c  -5.90  -4.30c  +2.9,-0.0,+0.0
# iter:  18 20:22:45   -15.552073c  -6.46  -4.05c  +2.9,-0.0,+0.0
# iter:  19 20:23:19   -15.552073c  -6.62  -4.21c  +2.9,-0.0,+0.0
# iter:  20 20:23:54   -15.552074c  -6.83  -4.43c  +2.9,-0.0,+0.0
# iter:  21 20:24:28   -15.552076c  -7.13  -4.56c  +2.9,-0.0,+0.0
# iter:  22 20:25:03   -15.552076c  -7.51c -4.59c  +2.9,-0.0,+0.0
scf_steps: 22
energies:  # eV
  coulomb:          -3.617938
  zero:              0.059683
  xc:              -15.945138
  external:          0.000000
  kinetic:           3.956591
  spinorbit:         0.000000
  entropy:          -0.010549
  total:           -15.557351
  extrapolated:    -15.552076

dipole moment: [-5.157030, -8.932038, -9.841996]  # |e|*Ang

total magnetic moment: [2.937441, -0.001344, 0.000000]

local magnetic moments: [
  [ 2.620482,  0.000000,  0.000000],  # V  0
  [-0.023096,  0.015692, -0.000000],  # Br 1
  [-0.023045,  0.015766, -0.000000]]  # Br 2


Fermi level: -0.667 eV

kpt = [-0.417, -0.417, 0.000], weight = 0.007:
  Band      eig [eV]   occ [0-1]
     0       -65.429       1.000
   ...
    19        -5.095       1.000
    20        -4.981       1.000
    21        -4.949       1.000
    22        -4.918       1.000
    23        -4.838       1.000
    24        -1.719       1.000
    25        -1.197       0.995
    26        -1.189       0.995
    27        -0.045       0.002
    28         0.078       0.001
    29         0.417       0.000
    30         1.118       0.000
    31         1.163       0.000
    32         1.481       0.000
    33         1.635       0.000
    34         2.996       0.000
   ...
    41         6.295       0.000

kpt = [-0.417, -0.333, 0.000], weight = 0.007:
  Band      eig [eV]   occ [0-1]
     0       -65.429       1.000
   ...
    19        -5.173       1.000
    20        -5.096       1.000
    21        -4.990       1.000
    22        -4.934       1.000
    23        -4.809       1.000
    24        -1.552       1.000
    25        -1.271       0.998
    26        -1.186       0.994
    27        -0.091       0.003
    28         0.031       0.001
    29         0.689       0.000
    30         0.990       0.000
    31         1.127       0.000
    32         1.429       0.000
    33         1.556       0.000
    34         3.348       0.000
   ...
    41         6.204       0.000

kpt = [-0.417, -0.250, 0.000], weight = 0.007:
  Band      eig [eV]   occ [0-1]
     0       -65.429       1.000
   ...
    19        -5.237       1.000
    20        -5.137       1.000
    21        -5.053       1.000
    22        -4.886       1.000
    23        -4.768       1.000
    24        -1.517       1.000
    25        -1.289       0.998
    26        -1.185       0.994
    27        -0.134       0.005
    28         0.045       0.001
    29         0.691       0.000
    30         0.962       0.000
    31         1.121       0.000
    32         1.407       0.000
    33         1.565       0.000
    34         3.516       0.000
   ...
    41         5.884       0.000
(only showing first 3 out of 144 k-points)

Gap: 0.848 eV
Transition (v -> c):
  (s=0, k=137, n=26, [0.50, -0.00, 0.00]) -> (s=0, k=86, n=27, [0.17, -0.25, 0.00])
# Writing to gsq-26.gpw (mode='')

---

timing:  # [seconds]
  Total: 778.883  # ━━━━━━━━━━━━━━━━━━━━━━━━━━━━━━━━━━━━━━━━━━━━━━━━━━━━━━━━━
  Init:   22.525  # ━╸
  SCF:   755.863  # ━━━━━━━━━━━━━━━━━━━━━━━━━━━━━━━━━━━━━━━━━━━━━━━━━━━━━━━╸

Max RSS: 1426.785  # MiB
x RSS: 1279.789  # MiB
