#  __  _  _
# | _ |_)|_||  |
# |__||  | ||/\| - 24.1.0

User:   s194113@n-62-29-5
Date:   Sun Apr 21 17:07:55 2024
Arch:   x86_64
Pid:    5518
CWD:    /zhome/87/8/147075/10302/10302_NM/VBr2/E_con
Python: 3.8.5
gpaw:   /zhome/87/8/147075/venv-name/gpaw/gpaw (10808453a8)
_gpaw:  /zhome/87/8/147075/venv-name/gpaw/
        _gpaw.cpython-38-x86_64-linux-gnu.so (10808453a8)
ase:    /zhome/87/8/147075/venv-name/ase/ase (version 3.23.0b1-c36115a2db)
numpy:  /zhome/87/8/147075/venv-name/lib/python3.8/site-packages/numpy (version 1.24.4)
scipy:  /zhome/87/8/147075/venv-name/lib/python3.8/site-packages/scipy (version 1.10.1)
libxc:  4.3.4
units:  Angstrom and eV
cores: 12
OpenMP: False
OMP_NUM_THREADS: 1

---
input parameters:
  kpts: 
    density: 6.0
    gamma: True
  magmoms: [[1, 0, 0], [0, 0, 0], [0, 0, 0]]
  mixer: 
    backend: 'pulay'
    beta: 0.05
    method: 'sum'
    nmaxold: 5
    weight: 100
  mode: 
    name: 'pw'
    ecut: 1000
    qspiral: array([0.41666667, 0.16666667, 0.        ])
  parallel: 
    kpt: None
    domain: 1
    band: 1
    order: 'kdb'
    stridebands: False
    augment_grids: False
    sl_auto: False
    sl_default: None
    sl_diagonalize: None
    sl_inverse_cholesky: None
    sl_lcao: None
    sl_lrtddft: None
    use_elpa: False
    elpasolver: '2stage'
    buffer_size: None
    gpu: False
  symmetry: 
    point_group: False
    time_reversal: False
  xc: 
    name: 'LDA'

#                        
#                        
#                        
#                        
#                        
#              Br        
#                        
#        V               
#          Br            
#                        
#                        
#                        
#                        
#                        

atoms: [  # symbols, positions [Ang] and initial magnetic moments
  [  V, [   0.000000,    0.000000,    7.513573], [ 1.000,  0.000,  0.000]], # 0
  [ Br, [   1.920000,    1.108513,    9.027147], [ 0.000,  0.000,  0.000]], # 1
  [ Br, [  -0.000000,    2.217025,    6.000000], [ 0.000,  0.000,  0.000]]] # 2

cell: [  # Ang
#     x            y            z
  [   3.840000,    0.000000,    0.000000],
  [  -1.920000,    3.325538,    0.000000],
  [   0.000000,   -0.000000,   15.027147]]

periodic: [True      , True      , False     ]
lengths:  [  3.840000,   3.840000,  15.027147]  # Ang
angles:   [ 90.000000,  90.000000, 120.000000]

symmetry:
  number of symmetries: 1
  rotations: [
    [[ 1,  0,  0], [ 0,  1,  0], [ 0,  0,  1]]]

bz sampling:
  number of bz points: 144
  number of ibz points: 144
  monkhorst-pack size: [12, 12, 1]
  monkhorst-pack shift: [0.041666666666666664, 0.041666666666666664, 0.0]
  points and weights: [
    [[ -0.41666667,  -0.41666667,   0.00000000], 0.00694444],  # 0
    [[ -0.41666667,  -0.33333333,   0.00000000], 0.00694444],  # 1
    [[ -0.41666667,  -0.25000000,   0.00000000], 0.00694444],  # 2
    [[ -0.41666667,  -0.16666667,   0.00000000], 0.00694444],  # 3
    [[ -0.41666667,  -0.08333333,   0.00000000], 0.00694444],  # 4
    [[ -0.41666667,  -0.00000000,   0.00000000], 0.00694444],  # 5
    [[ -0.41666667,   0.08333333,   0.00000000], 0.00694444],  # 6
    [[ -0.41666667,   0.16666667,   0.00000000], 0.00694444],  # 7
    [[ -0.41666667,   0.25000000,   0.00000000], 0.00694444],  # 8
    [[ -0.41666667,   0.33333333,   0.00000000], 0.00694444],  # 9
    # ...
    [[  0.50000000,   0.50000000,   0.00000000], 0.00694444]]  # 143

plane wave coefficients: 13840
cutoff: 1000.0 eV

spin-components: 4  # (non-collinear spins)
bands: 42
valence electrons: 27.0
spin-degeneracy: 1
dtype: complex128

memory:
    wave functions: 2_673_893_376  # bytes  (222_824_448 per core)

parallelization:
    kpt:    12
    domain: 1
    band:   1

density:
  components: 4
  grid points: [ 30  30 112]
  charge: 0.0  # |e|

potential:
  grid points: [ 30  30 112]

species:
  V:
    name: Vanadium
    id: 7939ce69e6bb5930668dfcf9bb1979c3
    Z: 23.0
    valence: 13
    core: 10
    charge: 0.0
    file: /zhome/86/d/1666/PAW/gpaw-setups-0.9.20000/V.LDA.gz
    compensation charges: {type: gauss,
                           rc: 0.37,
                           lmax: 2}
    cutoffs: {filter: 2.14,
              core: 0.96}
    valence states:
      #              energy  rcut
      - 3s(2.00)   -69.819   1.254
      - 4s(2.00)    -4.846   1.254
      - 3p(6.00)   -43.961   1.281
      - 4p(0.00)    -1.526   1.281
      - 3d(3.00)    -5.381   1.169
      -  d          21.830   1.169
  
    # Using partial waves for V as LCAO basis

  Br:
    name: Bromine
    id: 10a25bbcb3273ec7d8d7f6fc01d2618d
    Z: 35.0
    valence: 7
    core: 28
    charge: 0.0
    file: /zhome/86/d/1666/PAW/gpaw-setups-0.9.20000/Br.LDA.gz
    compensation charges: {type: gauss,
                           rc: 0.35,
                           lmax: 2}
    cutoffs: {filter: 1.98,
              core: 2.38}
    valence states:
      #              energy  rcut
      - 4s(2.00)   -20.306   1.111
      - 4p(5.00)    -8.003   1.111
      -  s           6.906   1.111
      -  p          19.208   1.111
      -  d           0.000   1.111
  
    # Using partial waves for Br as LCAO basis

Reference energy: -167392.690611  # eV

eigensolver:
  name: 'Davidson'
  niter: 2
  converge_bands: 'occupied'
Density mixing:
  Method: sum
  Backend: pulay
  Linear mixing parameter: 0.05
  old densities: 5
  Damping of long wavelength oscillations: 100
occupation numbers:
  Fermi-Dirac:
    width: 0.1000  # eV
  

poisson solver:
  ecut: 8000.0  # eV

xc functional:
  name: None

convergence criteria:
- Maximum [total energy] change in last 3 cyles: 0.0005 eV / valence electron
- Maximum integral of absolute [dens]ity change: 0.0001 electrons / valence electron
- Maximum integral of absolute [eigenst]ate change: 4e-08 eV^2 / valence electron
maximum number of iterations: 333

#      iter     time        total  log10-change:
#                          energy   eigst   dens
# iter:   1 17:08:50   -14.381412                  +1.0,+0.0,+0.0
# iter:   2 17:09:25   -15.132757   +0.14  -1.42   +1.4,-0.0,-0.0
# iter:   3 17:09:59   -15.233793   -0.68  -1.46   +1.6,-0.0,-0.0
# iter:   4 17:10:34   -15.366397   -1.28  -1.55   +1.9,-0.0,-0.0
# iter:   5 17:11:08   -15.580654   -1.83  -1.68   +2.4,-0.0,-0.0
# iter:   6 17:11:43   -15.584091   -2.06  -2.01   +2.5,-0.0,-0.0
# iter:   7 17:12:17   -15.588884c  -2.41  -2.26   +2.6,-0.0,-0.0
# iter:   8 17:12:51   -15.583914c  -2.90  -2.51   +2.6,-0.0,-0.0
# iter:   9 17:13:26   -15.585450c  -3.61  -2.70   +2.6,-0.0,-0.0
# iter:  10 17:14:01   -15.586206c  -3.87  -2.99   +2.6,-0.0,-0.0
# iter:  11 17:14:35   -15.586256c  -4.26  -3.61   +2.6,-0.0,-0.0
# iter:  12 17:15:10   -15.586276c  -4.55  -3.65   +2.6,-0.0,-0.0
# iter:  13 17:15:44   -15.586331c  -4.79  -3.68   +2.6,-0.0,-0.0
# iter:  14 17:16:19   -15.586338c  -5.03  -3.78   +2.6,-0.0,-0.0
# iter:  15 17:16:53   -15.586340c  -5.31  -3.89   +2.6,-0.0,-0.0
# iter:  16 17:17:27   -15.586340c  -5.57  -3.96   +2.6,-0.0,-0.0
# iter:  17 17:18:02   -15.586334c  -5.83  -3.99   +2.6,-0.0,-0.0
# iter:  18 17:18:37   -15.586329c  -6.06  -4.03c  +2.6,-0.0,-0.0
# iter:  19 17:19:11   -15.586331c  -6.21  -4.05c  +2.6,-0.0,-0.0
# iter:  20 17:19:46   -15.586333c  -6.44  -4.21c  +2.6,-0.0,-0.0
# iter:  21 17:20:20   -15.586333c  -6.67  -4.41c  +2.6,-0.0,-0.0
# iter:  22 17:20:54   -15.586332c  -6.86  -4.47c  +2.6,-0.0,-0.0
# iter:  23 17:21:29   -15.586331c  -7.09  -4.58c  +2.6,-0.0,-0.0
# iter:  24 17:22:03   -15.586331c  -7.35  -4.77c  +2.6,-0.0,-0.0
# iter:  25 17:22:38   -15.586332c  -7.52c -4.81c  +2.6,-0.0,-0.0
scf_steps: 25
energies:  # eV
  coulomb:          -2.967719
  zero:              0.061730
  xc:              -15.713142
  external:          0.000000
  kinetic:           3.037220
  spinorbit:         0.000000
  entropy:          -0.008842
  total:           -15.590753
  extrapolated:    -15.586332

dipole moment: [-4.623416, -8.332073, -7.982373]  # |e|*Ang

total magnetic moment: [2.646437, -0.000155, -0.000000]

local magnetic moments: [
  [ 2.548409,  0.000000, -0.000000],  # V  0
  [ 0.007115,  0.000043, -0.000000],  # Br 1
  [-0.006140,  0.003595, -0.000000]]  # Br 2


Fermi level: -0.770 eV

kpt = [-0.417, -0.417, 0.000], weight = 0.007:
  Band      eig [eV]   occ [0-1]
     0       -65.514       1.000
   ...
    19        -5.144       1.000
    20        -5.114       1.000
    21        -5.035       1.000
    22        -4.840       1.000
    23        -4.797       1.000
    24        -1.588       1.000
    25        -1.418       0.998
    26        -1.272       0.993
    27        -0.167       0.002
    28        -0.039       0.001
    29         0.726       0.000
    30         0.764       0.000
    31         1.010       0.000
    32         1.336       0.000
    33         1.432       0.000
    34         3.208       0.000
   ...
    41         5.879       0.000

kpt = [-0.417, -0.333, 0.000], weight = 0.007:
  Band      eig [eV]   occ [0-1]
     0       -65.514       1.000
   ...
    19        -5.130       1.000
    20        -4.981       1.000
    21        -4.771       1.000
    22        -4.703       1.000
    23        -4.641       1.000
    24        -1.656       1.000
    25        -1.410       0.998
    26        -1.333       0.996
    27        -0.237       0.005
    28        -0.015       0.001
    29         0.685       0.000
    30         0.814       0.000
    31         0.928       0.000
    32         1.253       0.000
    33         1.405       0.000
    34         3.028       0.000
   ...
    41         5.478       0.000

kpt = [-0.417, -0.250, 0.000], weight = 0.007:
  Band      eig [eV]   occ [0-1]
     0       -65.515       1.000
   ...
    19        -5.052       1.000
    20        -4.806       1.000
    21        -4.673       1.000
    22        -4.583       1.000
    23        -4.462       1.000
    24        -1.642       1.000
    25        -1.451       0.999
    26        -1.352       0.997
    27        -0.248       0.005
    28        -0.086       0.001
    29         0.632       0.000
    30         0.766       0.000
    31         0.883       0.000
    32         1.168       0.000
    33         1.298       0.000
    34         3.153       0.000
   ...
    41         5.184       0.000
(only showing first 3 out of 144 k-points)

Gap: 0.822 eV
Transition (v -> c):
  (s=0, k=71, n=26, [-0.00, 0.50, 0.00]) -> (s=0, k=68, n=27, [-0.00, 0.25, 0.00])
# Writing to gsq-13.gpw (mode='')

gsq-13.gpw (mode='')

