#  __  _  _
# | _ |_)|_||  |
# |__||  | ||/\| - 24.1.0

User:   s194113@n-62-29-5
Date:   Sun Apr 21 20:25:03 2024
Arch:   x86_64
Pid:    5518
CWD:    /zhome/87/8/147075/10302/10302_NM/VBr2/E_con
Python: 3.8.5
gpaw:   /zhome/87/8/147075/venv-name/gpaw/gpaw (10808453a8)
_gpaw:  /zhome/87/8/147075/venv-name/gpaw/
        _gpaw.cpython-38-x86_64-linux-gnu.so (10808453a8)
ase:    /zhome/87/8/147075/venv-name/ase/ase (version 3.23.0b1-c36115a2db)
numpy:  /zhome/87/8/147075/venv-name/lib/python3.8/site-packages/numpy (version 1.24.4)
scipy:  /zhome/87/8/147075/venv-name/lib/python3.8/site-packages/scipy (version 1.10.1)
libxc:  4.3.4
units:  Angstrom and eV
cores: 12
OpenMP: False
OMP_NUM_THREADS: 1

---
input parameters:
  kpts: 
    density: 6.0
    gamma: True
  magmoms: [[1, 0, 0], [0, 0, 0], [0, 0, 0]]
  mixer: 
    backend: 'pulay'
    beta: 0.05
    method: 'sum'
    nmaxold: 5
    weight: 100
  mode: 
    name: 'pw'
    ecut: 1000
    qspiral: array([0.07142857, 0.07142857, 0.        ])
  parallel: 
    kpt: None
    domain: 1
    band: 1
    order: 'kdb'
    stridebands: False
    augment_grids: False
    sl_auto: False
    sl_default: None
    sl_diagonalize: None
    sl_inverse_cholesky: None
    sl_lcao: None
    sl_lrtddft: None
    use_elpa: False
    elpasolver: '2stage'
    buffer_size: None
    gpu: False
  symmetry: 
    point_group: False
    time_reversal: False
  xc: 
    name: 'LDA'

#                        
#                        
#                        
#                        
#                        
#              Br        
#                        
#        V               
#          Br            
#                        
#                        
#                        
#                        
#                        

atoms: [  # symbols, positions [Ang] and initial magnetic moments
  [  V, [   0.000000,    0.000000,    7.513573], [ 1.000,  0.000,  0.000]], # 0
  [ Br, [   1.920000,    1.108513,    9.027147], [ 0.000,  0.000,  0.000]], # 1
  [ Br, [  -0.000000,    2.217025,    6.000000], [ 0.000,  0.000,  0.000]]] # 2

cell: [  # Ang
#     x            y            z
  [   3.840000,    0.000000,    0.000000],
  [  -1.920000,    3.325538,    0.000000],
  [   0.000000,   -0.000000,   15.027147]]

periodic: [True      , True      , False     ]
lengths:  [  3.840000,   3.840000,  15.027147]  # Ang
angles:   [ 90.000000,  90.000000, 120.000000]

symmetry:
  number of symmetries: 1
  rotations: [
    [[ 1,  0,  0], [ 0,  1,  0], [ 0,  0,  1]]]

bz sampling:
  number of bz points: 144
  number of ibz points: 144
  monkhorst-pack size: [12, 12, 1]
  monkhorst-pack shift: [0.041666666666666664, 0.041666666666666664, 0.0]
  points and weights: [
    [[ -0.41666667,  -0.41666667,   0.00000000], 0.00694444],  # 0
    [[ -0.41666667,  -0.33333333,   0.00000000], 0.00694444],  # 1
    [[ -0.41666667,  -0.25000000,   0.00000000], 0.00694444],  # 2
    [[ -0.41666667,  -0.16666667,   0.00000000], 0.00694444],  # 3
    [[ -0.41666667,  -0.08333333,   0.00000000], 0.00694444],  # 4
    [[ -0.41666667,  -0.00000000,   0.00000000], 0.00694444],  # 5
    [[ -0.41666667,   0.08333333,   0.00000000], 0.00694444],  # 6
    [[ -0.41666667,   0.16666667,   0.00000000], 0.00694444],  # 7
    [[ -0.41666667,   0.25000000,   0.00000000], 0.00694444],  # 8
    [[ -0.41666667,   0.33333333,   0.00000000], 0.00694444],  # 9
    # ...
    [[  0.50000000,   0.50000000,   0.00000000], 0.00694444]]  # 143

plane wave coefficients: 13840
cutoff: 1000.0 eV

spin-components: 4  # (non-collinear spins)
bands: 42
valence electrons: 27.0
spin-degeneracy: 1
dtype: complex128

memory:
    wave functions: 2_673_893_376  # bytes  (222_824_448 per core)

parallelization:
    kpt:    12
    domain: 1
    band:   1

density:
  components: 4
  grid points: [ 30  30 112]
  charge: 0.0  # |e|

potential:
  grid points: [ 30  30 112]

species:
  V:
    name: Vanadium
    id: 7939ce69e6bb5930668dfcf9bb1979c3
    Z: 23.0
    valence: 13
    core: 10
    charge: 0.0
    file: /zhome/86/d/1666/PAW/gpaw-setups-0.9.20000/V.LDA.gz
    compensation charges: {type: gauss,
                           rc: 0.37,
                           lmax: 2}
    cutoffs: {filter: 2.14,
              core: 0.96}
    valence states:
      #              energy  rcut
      - 3s(2.00)   -69.819   1.254
      - 4s(2.00)    -4.846   1.254
      - 3p(6.00)   -43.961   1.281
      - 4p(0.00)    -1.526   1.281
      - 3d(3.00)    -5.381   1.169
      -  d          21.830   1.169
  
    # Using partial waves for V as LCAO basis

  Br:
    name: Bromine
    id: 10a25bbcb3273ec7d8d7f6fc01d2618d
    Z: 35.0
    valence: 7
    core: 28
    charge: 0.0
    file: /zhome/86/d/1666/PAW/gpaw-setups-0.9.20000/Br.LDA.gz
    compensation charges: {type: gauss,
                           rc: 0.35,
                           lmax: 2}
    cutoffs: {filter: 1.98,
              core: 2.38}
    valence states:
      #              energy  rcut
      - 4s(2.00)   -20.306   1.111
      - 4p(5.00)    -8.003   1.111
      -  s           6.906   1.111
      -  p          19.208   1.111
      -  d           0.000   1.111
  
    # Using partial waves for Br as LCAO basis

Reference energy: -167392.690611  # eV

eigensolver:
  name: 'Davidson'
  niter: 2
  converge_bands: 'occupied'
Density mixing:
  Method: sum
  Backend: pulay
  Linear mixing parameter: 0.05
  old densities: 5
  Damping of long wavelength oscillations: 100
occupation numbers:
  Fermi-Dirac:
    width: 0.1000  # eV
  

poisson solver:
  ecut: 8000.0  # eV

xc functional:
  name: None

convergence criteria:
- Maximum [total energy] change in last 3 cyles: 0.0005 eV / valence electron
- Maximum integral of absolute [dens]ity change: 0.0001 electrons / valence electron
- Maximum integral of absolute [eigenst]ate change: 4e-08 eV^2 / valence electron
maximum number of iterations: 333

#      iter     time        total  log10-change:
#                          energy   eigst   dens
# iter:   1 20:25:59   -14.948172                  +1.0,+0.0,+0.0
# iter:   2 20:26:33   -15.126738   -0.57  -1.42   +1.5,-0.0,+0.0
# iter:   3 20:27:08   -15.161567   -1.19  -1.46   +1.9,-0.0,-0.0
# iter:   4 20:27:43   -15.300348   -1.56  -1.56   +2.2,-0.0,-0.0
# iter:   5 20:28:18   -15.542006   -2.05  -1.68   +2.8,-0.0,+0.0
# iter:   6 20:28:52   -15.552936   -2.20  -2.07   +2.9,-0.0,+0.0
# iter:   7 20:29:27   -15.545639c  -2.66  -2.29   +2.9,-0.0,+0.0
# iter:   8 20:30:01   -15.544236c  -3.55  -2.62   +2.9,-0.0,+0.0
# iter:   9 20:30:36   -15.548652c  -3.09  -2.75   +2.9,-0.0,+0.0
# iter:  10 20:31:11   -15.546780c  -3.78  -2.61   +2.9,-0.0,+0.0
# iter:  11 20:31:45   -15.546767c  -4.42  -3.51   +2.9,-0.0,+0.0
# iter:  12 20:32:20   -15.546793c  -4.88  -3.61   +3.0,-0.0,+0.0
# iter:  13 20:32:54   -15.546800c  -5.05  -3.71   +3.0,-0.0,+0.0
# iter:  14 20:33:29   -15.546793c  -5.40  -3.92   +3.0,-0.0,+0.0
# iter:  15 20:34:04   -15.546785c  -5.64  -3.99   +3.0,-0.0,+0.0
# iter:  16 20:34:39   -15.546790c  -5.91  -4.09c  +3.0,-0.0,+0.0
# iter:  17 20:35:13   -15.546791c  -6.25  -4.10c  +3.0,-0.0,+0.0
# iter:  18 20:35:48   -15.546803c  -6.23  -4.13c  +3.0,-0.0,+0.0
# iter:  19 20:36:23   -15.546802c  -6.61  -4.22c  +3.0,-0.0,+0.0
# iter:  20 20:36:57   -15.546801c  -6.95  -4.32c  +3.0,-0.0,+0.0
# iter:  21 20:37:32   -15.546801c  -7.10  -4.39c  +3.0,-0.0,+0.0
# iter:  22 20:38:07   -15.546808c  -7.10  -4.48c  +3.0,-0.0,+0.0
# iter:  23 20:38:41   -15.546808c  -7.60c -5.07c  +3.0,-0.0,+0.0
scf_steps: 23
energies:  # eV
  coulomb:          -3.733826
  zero:              0.058879
  xc:              -15.978823
  external:          0.000000
  kinetic:           4.112545
  spinorbit:         0.000000
  entropy:          -0.011163
  total:           -15.552389
  extrapolated:    -15.546808

dipole moment: [-5.197618, -9.002164, -9.995838]  # |e|*Ang

total magnetic moment: [2.962568, -0.001054, 0.000000]

local magnetic moments: [
  [ 2.629448, -0.000000,  0.000000],  # V  0
  [-0.025904,  0.012436, -0.000000],  # Br 1
  [-0.025874,  0.012499, -0.000000]]  # Br 2


Fermi level: -0.659 eV

kpt = [-0.417, -0.417, 0.000], weight = 0.007:
  Band      eig [eV]   occ [0-1]
     0       -65.418       1.000
   ...
    19        -5.098       1.000
    20        -4.996       1.000
    21        -4.994       1.000
    22        -4.926       1.000
    23        -4.829       1.000
    24        -1.706       1.000
    25        -1.181       0.995
    26        -1.176       0.994
    27        -0.058       0.002
    28         0.113       0.000
    29         0.390       0.000
    30         1.125       0.000
    31         1.188       0.000
    32         1.486       0.000
    33         1.664       0.000
    34         3.063       0.000
   ...
    41         6.387       0.000

kpt = [-0.417, -0.333, 0.000], weight = 0.007:
  Band      eig [eV]   occ [0-1]
     0       -65.418       1.000
   ...
    19        -5.201       1.000
    20        -5.115       1.000
    21        -4.984       1.000
    22        -4.945       1.000
    23        -4.798       1.000
    24        -1.533       1.000
    25        -1.250       0.997
    26        -1.173       0.994
    27        -0.103       0.004
    28         0.058       0.001
    29         0.686       0.000
    30         1.005       0.000
    31         1.138       0.000
    32         1.428       0.000
    33         1.578       0.000
    34         3.453       0.000
   ...
    41         6.072       0.000

kpt = [-0.417, -0.250, 0.000], weight = 0.007:
  Band      eig [eV]   occ [0-1]
     0       -65.418       1.000
   ...
    19        -5.247       1.000
    20        -5.139       1.000
    21        -5.025       1.000
    22        -4.913       1.000
    23        -4.774       1.000
    24        -1.512       1.000
    25        -1.259       0.998
    26        -1.172       0.994
    27        -0.130       0.005
    28         0.067       0.001
    29         0.688       0.000
    30         0.989       0.000
    31         1.134       0.000
    32         1.417       0.000
    33         1.584       0.000
    34         3.560       0.000
   ...
    41         5.899       0.000
(only showing first 3 out of 144 k-points)

Gap: 0.836 eV
Transition (v -> c):
  (s=0, k=137, n=26, [0.50, -0.00, 0.00]) -> (s=0, k=99, n=27, [0.25, -0.17, 0.00])
# Writing to gsq-27.gpw (mode='')

---

timing:  # [seconds]
  Total: 820.445  # ━━━━━━━━━━━━━━━━━━━━━━━━━━━━━━━━━━━━━━━━━━━━━━━━━━━━━━━━━
  Init:   22.543  # ━╸
  SCF:   795.830  # ━━━━━━━━━━━━━━━━━━━━━━━━━━━━━━━━━━━━━━━━━━━━━━━━━━━━━━━╸

Max RSS: 1426.785  # MiB
