#  __  _  _
# | _ |_)|_||  |
# |__||  | ||/\| - 24.1.0

User:   s194113@n-62-29-5
Date:   Sun Apr 21 18:06:55 2024
Arch:   x86_64
Pid:    5518
CWD:    /zhome/87/8/147075/10302/10302_NM/VBr2/E_con
Python: 3.8.5
gpaw:   /zhome/87/8/147075/venv-name/gpaw/gpaw (10808453a8)
_gpaw:  /zhome/87/8/147075/venv-name/gpaw/
        _gpaw.cpython-38-x86_64-linux-gnu.so (10808453a8)
ase:    /zhome/87/8/147075/venv-name/ase/ase (version 3.23.0b1-c36115a2db)
numpy:  /zhome/87/8/147075/venv-name/lib/python3.8/site-packages/numpy (version 1.24.4)
scipy:  /zhome/87/8/147075/venv-name/lib/python3.8/site-packages/scipy (version 1.10.1)
libxc:  4.3.4
units:  Angstrom and eV
cores: 12
OpenMP: False
OMP_NUM_THREADS: 1

---
input parameters:
  kpts: 
    density: 6.0
    gamma: True
  magmoms: [[1, 0, 0], [0, 0, 0], [0, 0, 0]]
  mixer: 
    backend: 'pulay'
    beta: 0.05
    method: 'sum'
    nmaxold: 5
    weight: 100
  mode: 
    name: 'pw'
    ecut: 1000
    qspiral: array([0.30952381, 0.30952381, 0.        ])
  parallel: 
    kpt: None
    domain: 1
    band: 1
    order: 'kdb'
    stridebands: False
    augment_grids: False
    sl_auto: False
    sl_default: None
    sl_diagonalize: None
    sl_inverse_cholesky: None
    sl_lcao: None
    sl_lrtddft: None
    use_elpa: False
    elpasolver: '2stage'
    buffer_size: None
    gpu: False
  symmetry: 
    point_group: False
    time_reversal: False
  xc: 
    name: 'LDA'

#                        
#                        
#                        
#                        
#                        
#              Br        
#                        
#        V               
#          Br            
#                        
#                        
#                        
#                        
#                        

atoms: [  # symbols, positions [Ang] and initial magnetic moments
  [  V, [   0.000000,    0.000000,    7.513573], [ 1.000,  0.000,  0.000]], # 0
  [ Br, [   1.920000,    1.108513,    9.027147], [ 0.000,  0.000,  0.000]], # 1
  [ Br, [  -0.000000,    2.217025,    6.000000], [ 0.000,  0.000,  0.000]]] # 2

cell: [  # Ang
#     x            y            z
  [   3.840000,    0.000000,    0.000000],
  [  -1.920000,    3.325538,    0.000000],
  [   0.000000,   -0.000000,   15.027147]]

periodic: [True      , True      , False     ]
lengths:  [  3.840000,   3.840000,  15.027147]  # Ang
angles:   [ 90.000000,  90.000000, 120.000000]

symmetry:
  number of symmetries: 1
  rotations: [
    [[ 1,  0,  0], [ 0,  1,  0], [ 0,  0,  1]]]

bz sampling:
  number of bz points: 144
  number of ibz points: 144
  monkhorst-pack size: [12, 12, 1]
  monkhorst-pack shift: [0.041666666666666664, 0.041666666666666664, 0.0]
  points and weights: [
    [[ -0.41666667,  -0.41666667,   0.00000000], 0.00694444],  # 0
    [[ -0.41666667,  -0.33333333,   0.00000000], 0.00694444],  # 1
    [[ -0.41666667,  -0.25000000,   0.00000000], 0.00694444],  # 2
    [[ -0.41666667,  -0.16666667,   0.00000000], 0.00694444],  # 3
    [[ -0.41666667,  -0.08333333,   0.00000000], 0.00694444],  # 4
    [[ -0.41666667,  -0.00000000,   0.00000000], 0.00694444],  # 5
    [[ -0.41666667,   0.08333333,   0.00000000], 0.00694444],  # 6
    [[ -0.41666667,   0.16666667,   0.00000000], 0.00694444],  # 7
    [[ -0.41666667,   0.25000000,   0.00000000], 0.00694444],  # 8
    [[ -0.41666667,   0.33333333,   0.00000000], 0.00694444],  # 9
    # ...
    [[  0.50000000,   0.50000000,   0.00000000], 0.00694444]]  # 143

plane wave coefficients: 13840
cutoff: 1000.0 eV

spin-components: 4  # (non-collinear spins)
bands: 42
valence electrons: 27.0
spin-degeneracy: 1
dtype: complex128

memory:
    wave functions: 2_673_893_376  # bytes  (222_824_448 per core)

parallelization:
    kpt:    12
    domain: 1
    band:   1

density:
  components: 4
  grid points: [ 30  30 112]
  charge: 0.0  # |e|

potential:
  grid points: [ 30  30 112]

species:
  V:
    name: Vanadium
    id: 7939ce69e6bb5930668dfcf9bb1979c3
    Z: 23.0
    valence: 13
    core: 10
    charge: 0.0
    file: /zhome/86/d/1666/PAW/gpaw-setups-0.9.20000/V.LDA.gz
    compensation charges: {type: gauss,
                           rc: 0.37,
                           lmax: 2}
    cutoffs: {filter: 2.14,
              core: 0.96}
    valence states:
      #              energy  rcut
      - 3s(2.00)   -69.819   1.254
      - 4s(2.00)    -4.846   1.254
      - 3p(6.00)   -43.961   1.281
      - 4p(0.00)    -1.526   1.281
      - 3d(3.00)    -5.381   1.169
      -  d          21.830   1.169
  
    # Using partial waves for V as LCAO basis

  Br:
    name: Bromine
    id: 10a25bbcb3273ec7d8d7f6fc01d2618d
    Z: 35.0
    valence: 7
    core: 28
    charge: 0.0
    file: /zhome/86/d/1666/PAW/gpaw-setups-0.9.20000/Br.LDA.gz
    compensation charges: {type: gauss,
                           rc: 0.35,
                           lmax: 2}
    cutoffs: {filter: 1.98,
              core: 2.38}
    valence states:
      #              energy  rcut
      - 4s(2.00)   -20.306   1.111
      - 4p(5.00)    -8.003   1.111
      -  s           6.906   1.111
      -  p          19.208   1.111
      -  d           0.000   1.111
  
    # Using partial waves for Br as LCAO basis

Reference energy: -167392.690611  # eV

eigensolver:
  name: 'Davidson'
  niter: 2
  converge_bands: 'occupied'
Density mixing:
  Method: sum
  Backend: pulay
  Linear mixing parameter: 0.05
  old densities: 5
  Damping of long wavelength oscillations: 100
occupation numbers:
  Fermi-Dirac:
    width: 0.1000  # eV
  

poisson solver:
  ecut: 8000.0  # eV

xc functional:
  name: None

convergence criteria:
- Maximum [total energy] change in last 3 cyles: 0.0005 eV / valence electron
- Maximum integral of absolute [dens]ity change: 0.0001 electrons / valence electron
- Maximum integral of absolute [eigenst]ate change: 4e-08 eV^2 / valence electron
maximum number of iterations: 333

#      iter     time        total  log10-change:
#                          energy   eigst   dens
# iter:   1 18:07:50   -14.325907                  +1.0,+0.0,+0.0
# iter:   2 18:08:25   -15.131852   +0.18  -1.43   +1.4,-0.0,+0.0
# iter:   3 18:09:00   -15.239668   -0.64  -1.46   +1.6,-0.0,+0.0
# iter:   4 18:09:34   -15.371318   -1.26  -1.55   +1.9,-0.0,+0.0
# iter:   5 18:10:09   -15.586987   -1.80  -1.68   +2.3,-0.0,+0.0
# iter:   6 18:10:43   -15.587368   -2.03  -1.99   +2.5,-0.0,+0.0
# iter:   7 18:11:18   -15.593103c  -2.35  -2.26   +2.5,-0.0,+0.0
# iter:   8 18:11:52   -15.587535c  -2.86  -2.50   +2.5,-0.0,+0.0
# iter:   9 18:12:27   -15.589443c  -3.58  -2.70   +2.6,-0.0,+0.0
# iter:  10 18:13:01   -15.589831c  -3.91  -3.08   +2.6,-0.0,+0.0
# iter:  11 18:13:36   -15.589903c  -4.24  -3.61   +2.6,-0.0,+0.0
# iter:  12 18:14:10   -15.589924c  -4.53  -3.67   +2.6,-0.0,+0.0
# iter:  13 18:14:45   -15.589970c  -4.77  -3.71   +2.6,-0.0,+0.0
# iter:  14 18:15:19   -15.589979c  -5.05  -3.81   +2.6,-0.0,+0.0
# iter:  15 18:15:54   -15.589989c  -5.29  -3.88   +2.6,-0.0,+0.0
# iter:  16 18:16:28   -15.589989c  -5.52  -3.99   +2.6,-0.0,+0.0
# iter:  17 18:17:02   -15.589985c  -5.75  -4.19c  +2.6,-0.0,+0.0
# iter:  18 18:17:37   -15.589984c  -6.00  -4.39c  +2.6,-0.0,+0.0
# iter:  19 18:18:11   -15.589981c  -6.27  -4.44c  +2.6,-0.0,+0.0
# iter:  20 18:18:46   -15.589980c  -6.46  -4.67c  +2.6,-0.0,+0.0
# iter:  21 18:19:20   -15.589980c  -6.72  -5.16c  +2.6,-0.0,+0.0
# iter:  22 18:19:54   -15.589980c  -6.95  -5.26c  +2.6,-0.0,+0.0
# iter:  23 18:20:29   -15.589979c  -7.17  -5.19c  +2.6,-0.0,+0.0
# iter:  24 18:21:03   -15.589979c  -7.38  -5.75c  +2.6,-0.0,-0.0
# iter:  25 18:21:38   -15.589979c  -7.59c -5.79c  +2.6,-0.0,-0.0
scf_steps: 25
energies:  # eV
  coulomb:          -2.899315
  zero:              0.061524
  xc:              -15.694226
  external:          0.000000
  kinetic:           2.946273
  spinorbit:         0.000000
  entropy:          -0.008472
  total:           -15.594216
  extrapolated:    -15.589979

dipole moment: [-4.733634, -8.198993, -7.807592]  # |e|*Ang

total magnetic moment: [2.625700, -0.000241, -0.000000]

local magnetic moments: [
  [ 2.543561,  0.000000,  0.000000],  # V  0
  [ 0.001042,  0.002861, -0.000000],  # Br 1
  [ 0.001182,  0.002806,  0.000000]]  # Br 2


Fermi level: -0.767 eV

kpt = [-0.417, -0.417, 0.000], weight = 0.007:
  Band      eig [eV]   occ [0-1]
     0       -65.519       1.000
   ...
    19        -5.191       1.000
    20        -5.117       1.000
    21        -5.016       1.000
    22        -4.934       1.000
    23        -4.781       1.000
    24        -1.558       1.000
    25        -1.384       0.998
    26        -1.310       0.996
    27        -0.167       0.002
    28        -0.065       0.001
    29         0.746       0.000
    30         0.856       0.000
    31         0.908       0.000
    32         1.353       0.000
    33         1.382       0.000
    34         3.265       0.000
   ...
    41         6.148       0.000

kpt = [-0.417, -0.333, 0.000], weight = 0.007:
  Band      eig [eV]   occ [0-1]
     0       -65.520       1.000
   ...
    19        -5.105       1.000
    20        -4.962       1.000
    21        -4.909       1.000
    22        -4.843       1.000
    23        -4.616       1.000
    24        -1.661       1.000
    25        -1.448       0.999
    26        -1.319       0.996
    27        -0.197       0.003
    28        -0.037       0.001
    29         0.671       0.000
    30         0.836       0.000
    31         0.916       0.000
    32         1.331       0.000
    33         1.401       0.000
    34         2.978       0.000
   ...
    41         5.492       0.000

kpt = [-0.417, -0.250, 0.000], weight = 0.007:
  Band      eig [eV]   occ [0-1]
     0       -65.520       1.000
   ...
    19        -5.009       1.000
    20        -4.803       1.000
    21        -4.757       1.000
    22        -4.671       1.000
    23        -4.469       1.000
    24        -1.690       1.000
    25        -1.553       1.000
    26        -1.287       0.995
    27        -0.178       0.003
    28        -0.083       0.001
    29         0.582       0.000
    30         0.747       0.000
    31         0.967       0.000
    32         1.288       0.000
    33         1.343       0.000
    34         2.949       0.000
   ...
    41         5.255       0.000
(only showing first 3 out of 144 k-points)

Gap: 0.852 eV
Transition (v -> c):
  (s=0, k=137, n=26, [0.50, -0.00, 0.00]) -> (s=0, k=115, n=27, [0.33, 0.17, 0.00])
# Writing to gsq-17.gpw (mode='')

---

timing:  # [seconds]
  Total: 884.760  # ━━━━━━━━━━━━━━━━━━━━━━━━━━━━━━━━━━━━━━━━━━━━━━━━━━━━━━━━━
  Init:   22.529  # ━╸
  SCF:   860.154  # ━━━━━━━━━━━━━━━━━━━━━━━━━━━━━━━━━━━━━━━━━━━━━━━━━━━━━━━╸

Max RSS: 953.473  # MiB
ax RSS: 856.723  # MiB
