3
Lattice="3.969662131560825 0.0 0.0 -1.984831065780413 3.4378282503727586 0.0 0.0 0.0 17.996797373762895" Properties=species:S:1:pos:R:3:initial_magmoms:R:1:magmoms:R:1 energy=-10.593160580427831 dipole="-1.4094106060389164e-09 8.137355849597736e-10 2.680892198226969e-09" magmom=1.997922177866366 free_energy=-10.593495696226237 pbc="T T F"
Ni      -0.00000000      -0.00000000       8.99839869       1.00000000       1.28782608
I        1.98483107       1.14594275      10.51197199       0.10000000       0.19870794
I       -0.00000000       2.29188550       7.48482539       0.10000000       0.19870794
