#  __  _  _
# | _ |_)|_||  |
# |__||  | ||/\| - 24.1.0

User:   s194113@n-62-28-28
Date:   Thu May  2 10:44:15 2024
Arch:   x86_64
Pid:    16738
CWD:    /work3/s194113/10302/10302_NM/VBr2
Python: 3.8.5
gpaw:   /zhome/87/8/147075/venv-name/gpaw/gpaw (10808453a8)
_gpaw:  /zhome/87/8/147075/venv-name/gpaw/
        _gpaw.cpython-38-x86_64-linux-gnu.so (10808453a8)
ase:    /zhome/87/8/147075/venv-name/ase/ase (version 3.23.0b1-c36115a2db)
numpy:  /zhome/87/8/147075/venv-name/lib/python3.8/site-packages/numpy (version 1.24.4)
scipy:  /zhome/87/8/147075/venv-name/lib/python3.8/site-packages/scipy (version 1.10.1)
libxc:  4.3.4
units:  Angstrom and eV
cores: 12
OpenMP: False
OMP_NUM_THREADS: 1

---
input parameters:
  kpts: 
    density: 8.0
    gamma: True
  magmoms: [[2.64162512, 0, 0], [-0.02514574, 0, 0], [-0.02514574, 0, 0]]
  mixer: 
    backend: 'pulay'
    beta: 0.05
    method: 'sum'
    nmaxold: 5
    weight: 100
  mode: 
    name: 'pw'
    ecut: 800.0
    qspiral: array([0.34920635, 0.3015873 , 0.        ])
  parallel: 
    kpt: None
    domain: 1
    band: 1
    order: 'kdb'
    stridebands: False
    augment_grids: False
    sl_auto: False
    sl_default: None
    sl_diagonalize: None
    sl_inverse_cholesky: None
    sl_lcao: None
    sl_lrtddft: None
    use_elpa: False
    elpasolver: '2stage'
    buffer_size: None
    gpu: False
  symmetry: 
    point_group: False
    time_reversal: False
  xc: 
    name: 'LDA'

#                        
#                        
#                        
#                        
#              Br        
#                        
#                        
#        V Br            
#                        
#                        
#                        
#                        
#                        

atoms: [  # symbols, positions [Ang] and initial magnetic moments
  [  V, [   0.000000,    0.000000,    7.448555], [ 2.642,  0.000,  0.000]], # 0
  [ Br, [   1.920224,    1.108642,    8.897111], [-0.025,  0.000,  0.000]], # 1
  [ Br, [   0.000000,    2.217284,    6.000000], [-0.025,  0.000,  0.000]]] # 2

cell: [  # Ang
#     x            y            z
  [   3.840448,    0.000000,    0.000000],
  [  -1.920224,    3.325925,    0.000000],
  [   0.000000,    0.000000,   14.897111]]

periodic: [True      , True      , False     ]
lengths:  [  3.840448,   3.840448,  14.897111]  # Ang
angles:   [ 90.000000,  90.000000, 120.000000]

symmetry:
  number of symmetries: 1
  rotations: [
    [[ 1,  0,  0], [ 0,  1,  0], [ 0,  0,  1]]]

bz sampling:
  number of bz points: 256
  number of ibz points: 256
  monkhorst-pack size: [16, 16, 1]
  monkhorst-pack shift: [0.03125, 0.03125, 0.0]
  points and weights: [
    [[ -0.43750000,  -0.43750000,   0.00000000], 0.00390625],  # 0
    [[ -0.43750000,  -0.37500000,   0.00000000], 0.00390625],  # 1
    [[ -0.43750000,  -0.31250000,   0.00000000], 0.00390625],  # 2
    [[ -0.43750000,  -0.25000000,   0.00000000], 0.00390625],  # 3
    [[ -0.43750000,  -0.18750000,   0.00000000], 0.00390625],  # 4
    [[ -0.43750000,  -0.12500000,   0.00000000], 0.00390625],  # 5
    [[ -0.43750000,  -0.06250000,   0.00000000], 0.00390625],  # 6
    [[ -0.43750000,   0.00000000,   0.00000000], 0.00390625],  # 7
    [[ -0.43750000,   0.06250000,   0.00000000], 0.00390625],  # 8
    [[ -0.43750000,   0.12500000,   0.00000000], 0.00390625],  # 9
    # ...
    [[  0.50000000,   0.50000000,   0.00000000], 0.00390625]]  # 255

plane wave coefficients: 9805
cutoff: 800.0 eV

spin-components: 4  # (non-collinear spins)
bands: 42
valence electrons: 27.0
spin-degeneracy: 1
dtype: complex128

memory:
    wave functions: 3_359_440_896  # bytes  (279_953_408 per core)

parallelization:
    kpt:    12
    domain: 1
    band:   1

density:
  components: 4
  grid points: [27 27 98]
  charge: 0.0  # |e|

potential:
  grid points: [27 27 98]

species:
  V:
    name: Vanadium
    id: 7939ce69e6bb5930668dfcf9bb1979c3
    Z: 23.0
    valence: 13
    core: 10
    charge: 0.0
    file: /zhome/86/d/1666/PAW/gpaw-setups-0.9.20000/V.LDA.gz
    compensation charges: {type: gauss,
                           rc: 0.37,
                           lmax: 2}
    cutoffs: {filter: 2.14,
              core: 0.96}
    valence states:
      #              energy  rcut
      - 3s(2.00)   -69.819   1.254
      - 4s(2.00)    -4.846   1.254
      - 3p(6.00)   -43.961   1.281
      - 4p(0.00)    -1.526   1.281
      - 3d(3.00)    -5.381   1.169
      -  d          21.830   1.169
  
    # Using partial waves for V as LCAO basis

  Br:
    name: Bromine
    id: 10a25bbcb3273ec7d8d7f6fc01d2618d
    Z: 35.0
    valence: 7
    core: 28
    charge: 0.0
    file: /zhome/86/d/1666/PAW/gpaw-setups-0.9.20000/Br.LDA.gz
    compensation charges: {type: gauss,
                           rc: 0.35,
                           lmax: 2}
    cutoffs: {filter: 1.98,
              core: 2.38}
    valence states:
      #              energy  rcut
      - 4s(2.00)   -20.306   1.111
      - 4p(5.00)    -8.003   1.111
      -  s           6.906   1.111
      -  p          19.208   1.111
      -  d           0.000   1.111
  
    # Using partial waves for Br as LCAO basis

Reference energy: -167392.690611  # eV

eigensolver:
  name: 'Davidson'
  niter: 2
  converge_bands: 'occupied'
Density mixing:
  Method: sum
  Backend: pulay
  Linear mixing parameter: 0.05
  old densities: 5
  Damping of long wavelength oscillations: 100
occupation numbers:
  Fermi-Dirac:
    width: 0.1000  # eV
  

poisson solver:
  ecut: 6400.0  # eV

xc functional:
  name: None

convergence criteria:
- Maximum [total energy] change in last 3 cyles: 0.0005 eV / valence electron
- Maximum integral of absolute [dens]ity change: 0.0001 electrons / valence electron
- Maximum integral of absolute [eigenst]ate change: 4e-08 eV^2 / valence electron
maximum number of iterations: 333

#      iter     time        total  log10-change:
#                          energy   eigst   dens
# iter:   1 10:45:43   -14.902672                  +2.6,+0.0,+0.0
# iter:   2 10:46:39   -15.645000   +0.21  -1.41   +2.5,+0.0,-0.0
# iter:   3 10:47:34   -15.629336   -0.65  -1.44   +2.6,+0.0,+0.0
# iter:   4 10:48:29   -15.646864   -1.21  -1.54   +2.6,+0.0,+0.0
# iter:   5 10:49:25   -15.721662   -1.43  -1.66   +2.6,+0.0,+0.0
# iter:   6 10:50:20   -15.683174   -2.22  -2.02   +2.6,-0.0,+0.0
# iter:   7 10:51:16   -15.678868   -2.37  -2.21   +2.6,-0.0,+0.0
# iter:   8 10:52:11   -15.676128c  -3.10  -2.41   +2.6,-0.0,+0.0
# iter:   9 10:53:06   -15.677880c  -3.15  -2.81   +2.6,-0.0,+0.0
# iter:  10 10:54:01   -15.676282c  -3.43  -2.66   +2.6,-0.0,+0.0
# iter:  11 10:54:56   -15.676223c  -4.08  -3.17   +2.6,-0.0,+0.0
# iter:  12 10:55:51   -15.676203c  -4.35  -3.42   +2.6,-0.0,+0.0
# iter:  13 10:56:46   -15.676186c  -4.51  -3.50   +2.6,-0.0,+0.0
# iter:  14 10:57:41   -15.676173c  -4.78  -3.51   +2.6,-0.0,+0.0
# iter:  15 10:58:36   -15.676175c  -5.15  -4.26c  +2.6,-0.0,+0.0
# iter:  16 10:59:31   -15.676176c  -5.40  -4.31c  +2.6,-0.0,+0.0
# iter:  17 11:00:26   -15.676177c  -5.64  -4.24c  +2.6,-0.0,+0.0
# iter:  18 11:01:20   -15.676177c  -5.84  -4.50c  +2.6,-0.0,+0.0
# iter:  19 11:02:15   -15.676177c  -6.09  -4.45c  +2.6,-0.0,+0.0
# iter:  20 11:03:09   -15.676177c  -6.33  -4.66c  +2.6,-0.0,+0.0
# iter:  21 11:04:04   -15.676177c  -6.55  -4.78c  +2.6,-0.0,+0.0
# iter:  22 11:04:58   -15.676176c  -6.72  -5.00c  +2.6,-0.0,+0.0
# iter:  23 11:05:53   -15.676176c  -6.98  -5.13c  +2.6,-0.0,+0.0
# iter:  24 11:06:48   -15.676176c  -7.19  -5.18c  +2.6,-0.0,+0.0
# iter:  25 11:07:43   -15.676176c  -7.41c -5.36c  +2.6,-0.0,+0.0
scf_steps: 25
energies:  # eV
  coulomb:          -5.321463
  zero:              0.051520
  xc:              -16.389540
  external:          0.000000
  kinetic:           5.986665
  spinorbit:         0.000000
  entropy:          -0.006717
  total:           -15.679535
  extrapolated:    -15.676176

dipole moment: [-4.614609, -8.057652, -7.556629]  # |e|*Ang

total magnetic moment: [2.586072, -0.000068, 0.000000]

local magnetic moments: [
  [ 2.525842, -0.000003,  0.000000],  # V  0
  [ 0.001588,  0.000062,  0.000000],  # Br 1
  [-0.000875,  0.001325,  0.000000]]  # Br 2


Fermi level: -0.650 eV

kpt = [-0.438, -0.438, 0.000], weight = 0.004:
  Band      eig [eV]   occ [0-1]
     0       -65.401       1.000
   ...
    19        -5.221       1.000
    20        -5.115       1.000
    21        -4.990       1.000
    22        -4.867       1.000
    23        -4.752       1.000
    24        -1.447       1.000
    25        -1.269       0.998
    26        -1.204       0.996
    27        -0.011       0.002
    28         0.070       0.001
    29         0.805       0.000
    30         0.895       0.000
    31         0.972       0.000
    32         1.470       0.000
    33         1.506       0.000
    34         3.794       0.000
   ...
    41         6.213       0.000

kpt = [-0.438, -0.375, 0.000], weight = 0.004:
  Band      eig [eV]   occ [0-1]
     0       -65.401       1.000
   ...
    19        -5.226       1.000
    20        -5.075       1.000
    21        -5.043       1.000
    22        -4.799       1.000
    23        -4.621       1.000
    24        -1.460       1.000
    25        -1.333       0.999
    26        -1.229       0.997
    27        -0.064       0.003
    28         0.089       0.001
    29         0.820       0.000
    30         0.872       0.000
    31         0.956       0.000
    32         1.450       0.000
    33         1.529       0.000
    34         3.505       0.000
   ...
    41         5.807       0.000

kpt = [-0.438, -0.312, 0.000], weight = 0.004:
  Band      eig [eV]   occ [0-1]
     0       -65.401       1.000
   ...
    19        -5.154       1.000
    20        -5.022       1.000
    21        -4.895       1.000
    22        -4.706       1.000
    23        -4.484       1.000
    24        -1.534       1.000
    25        -1.377       0.999
    26        -1.236       0.997
    27        -0.079       0.003
    28         0.099       0.001
    29         0.728       0.000
    30         0.900       0.000
    31         0.951       0.000
    32         1.412       0.000
    33         1.528       0.000
    34         3.245       0.000
   ...
    41         5.464       0.000
(only showing first 3 out of 256 k-points)

Gap: 0.894 eV
Transition (v -> c):
  (s=0, k=247, n=26, [0.50, 0.00, 0.00]) -> (s=0, k=114, n=27, [0.00, -0.31, 0.00])
# Writing to Band_Conv/gsq-55.gpw (mode='')

---

timing:  # [seconds]
  Total: 1409.117  # ━━━━━━━━━━━━━━━━━━━━━━━━━━━━━━━━━━━━━━━━━━━━━━━━━━━━━━━━
  Init:    34.062  # ━╸
  SCF:   1373.273  # ━━━━━━━━━━━━━━━━━━━━━━━━━━━━━━━━━━━━━━━━━━━━━━━━━━━━━━╸

Max RSS: 2442.898  # MiB
