#  __  _  _
# | _ |_)|_||  |
# |__||  | ||/\| - 24.1.0

User:   s194113@n-62-28-28
Date:   Thu May  2 09:56:55 2024
Arch:   x86_64
Pid:    16738
CWD:    /work3/s194113/10302/10302_NM/VBr2
Python: 3.8.5
gpaw:   /zhome/87/8/147075/venv-name/gpaw/gpaw (10808453a8)
_gpaw:  /zhome/87/8/147075/venv-name/gpaw/
        _gpaw.cpython-38-x86_64-linux-gnu.so (10808453a8)
ase:    /zhome/87/8/147075/venv-name/ase/ase (version 3.23.0b1-c36115a2db)
numpy:  /zhome/87/8/147075/venv-name/lib/python3.8/site-packages/numpy (version 1.24.4)
scipy:  /zhome/87/8/147075/venv-name/lib/python3.8/site-packages/scipy (version 1.10.1)
libxc:  4.3.4
units:  Angstrom and eV
cores: 12
OpenMP: False
OMP_NUM_THREADS: 1

---
input parameters:
  kpts: 
    density: 8.0
    gamma: True
  magmoms: [[2.64162512, 0, 0], [-0.02514574, 0, 0], [-0.02514574, 0, 0]]
  mixer: 
    backend: 'pulay'
    beta: 0.05
    method: 'sum'
    nmaxold: 5
    weight: 100
  mode: 
    name: 'pw'
    ecut: 800.0
    qspiral: array([0.36507937, 0.26984127, 0.        ])
  parallel: 
    kpt: None
    domain: 1
    band: 1
    order: 'kdb'
    stridebands: False
    augment_grids: False
    sl_auto: False
    sl_default: None
    sl_diagonalize: None
    sl_inverse_cholesky: None
    sl_lcao: None
    sl_lrtddft: None
    use_elpa: False
    elpasolver: '2stage'
    buffer_size: None
    gpu: False
  symmetry: 
    point_group: False
    time_reversal: False
  xc: 
    name: 'LDA'

#                        
#                        
#                        
#                        
#              Br        
#                        
#                        
#        V Br            
#                        
#                        
#                        
#                        
#                        

atoms: [  # symbols, positions [Ang] and initial magnetic moments
  [  V, [   0.000000,    0.000000,    7.448555], [ 2.642,  0.000,  0.000]], # 0
  [ Br, [   1.920224,    1.108642,    8.897111], [-0.025,  0.000,  0.000]], # 1
  [ Br, [   0.000000,    2.217284,    6.000000], [-0.025,  0.000,  0.000]]] # 2

cell: [  # Ang
#     x            y            z
  [   3.840448,    0.000000,    0.000000],
  [  -1.920224,    3.325925,    0.000000],
  [   0.000000,    0.000000,   14.897111]]

periodic: [True      , True      , False     ]
lengths:  [  3.840448,   3.840448,  14.897111]  # Ang
angles:   [ 90.000000,  90.000000, 120.000000]

symmetry:
  number of symmetries: 1
  rotations: [
    [[ 1,  0,  0], [ 0,  1,  0], [ 0,  0,  1]]]

bz sampling:
  number of bz points: 256
  number of ibz points: 256
  monkhorst-pack size: [16, 16, 1]
  monkhorst-pack shift: [0.03125, 0.03125, 0.0]
  points and weights: [
    [[ -0.43750000,  -0.43750000,   0.00000000], 0.00390625],  # 0
    [[ -0.43750000,  -0.37500000,   0.00000000], 0.00390625],  # 1
    [[ -0.43750000,  -0.31250000,   0.00000000], 0.00390625],  # 2
    [[ -0.43750000,  -0.25000000,   0.00000000], 0.00390625],  # 3
    [[ -0.43750000,  -0.18750000,   0.00000000], 0.00390625],  # 4
    [[ -0.43750000,  -0.12500000,   0.00000000], 0.00390625],  # 5
    [[ -0.43750000,  -0.06250000,   0.00000000], 0.00390625],  # 6
    [[ -0.43750000,   0.00000000,   0.00000000], 0.00390625],  # 7
    [[ -0.43750000,   0.06250000,   0.00000000], 0.00390625],  # 8
    [[ -0.43750000,   0.12500000,   0.00000000], 0.00390625],  # 9
    # ...
    [[  0.50000000,   0.50000000,   0.00000000], 0.00390625]]  # 255

plane wave coefficients: 9805
cutoff: 800.0 eV

spin-components: 4  # (non-collinear spins)
bands: 42
valence electrons: 27.0
spin-degeneracy: 1
dtype: complex128

memory:
    wave functions: 3_359_440_896  # bytes  (279_953_408 per core)

parallelization:
    kpt:    12
    domain: 1
    band:   1

density:
  components: 4
  grid points: [27 27 98]
  charge: 0.0  # |e|

potential:
  grid points: [27 27 98]

species:
  V:
    name: Vanadium
    id: 7939ce69e6bb5930668dfcf9bb1979c3
    Z: 23.0
    valence: 13
    core: 10
    charge: 0.0
    file: /zhome/86/d/1666/PAW/gpaw-setups-0.9.20000/V.LDA.gz
    compensation charges: {type: gauss,
                           rc: 0.37,
                           lmax: 2}
    cutoffs: {filter: 2.14,
              core: 0.96}
    valence states:
      #              energy  rcut
      - 3s(2.00)   -69.819   1.254
      - 4s(2.00)    -4.846   1.254
      - 3p(6.00)   -43.961   1.281
      - 4p(0.00)    -1.526   1.281
      - 3d(3.00)    -5.381   1.169
      -  d          21.830   1.169
  
    # Using partial waves for V as LCAO basis

  Br:
    name: Bromine
    id: 10a25bbcb3273ec7d8d7f6fc01d2618d
    Z: 35.0
    valence: 7
    core: 28
    charge: 0.0
    file: /zhome/86/d/1666/PAW/gpaw-setups-0.9.20000/Br.LDA.gz
    compensation charges: {type: gauss,
                           rc: 0.35,
                           lmax: 2}
    cutoffs: {filter: 1.98,
              core: 2.38}
    valence states:
      #              energy  rcut
      - 4s(2.00)   -20.306   1.111
      - 4p(5.00)    -8.003   1.111
      -  s           6.906   1.111
      -  p          19.208   1.111
      -  d           0.000   1.111
  
    # Using partial waves for Br as LCAO basis

Reference energy: -167392.690611  # eV

eigensolver:
  name: 'Davidson'
  niter: 2
  converge_bands: 'occupied'
Density mixing:
  Method: sum
  Backend: pulay
  Linear mixing parameter: 0.05
  old densities: 5
  Damping of long wavelength oscillations: 100
occupation numbers:
  Fermi-Dirac:
    width: 0.1000  # eV
  

poisson solver:
  ecut: 6400.0  # eV

xc functional:
  name: None

convergence criteria:
- Maximum [total energy] change in last 3 cyles: 0.0005 eV / valence electron
- Maximum integral of absolute [dens]ity change: 0.0001 electrons / valence electron
- Maximum integral of absolute [eigenst]ate change: 4e-08 eV^2 / valence electron
maximum number of iterations: 333

#      iter     time        total  log10-change:
#                          energy   eigst   dens
# iter:   1 09:58:23   -14.946635                  +2.6,+0.0,+0.0
# iter:   2 09:59:19   -15.650869   +0.19  -1.41   +2.6,+0.0,-0.0
# iter:   3 10:00:15   -15.628743   -0.67  -1.44   +2.6,+0.0,+0.0
# iter:   4 10:01:11   -15.646602   -1.22  -1.54   +2.6,+0.0,+0.0
# iter:   5 10:02:07   -15.718864   -1.45  -1.66   +2.6,+0.0,+0.0
# iter:   6 10:03:04   -15.682795   -2.23  -2.03   +2.6,-0.0,+0.0
# iter:   7 10:04:00   -15.678476   -2.38  -2.21   +2.6,-0.0,+0.0
# iter:   8 10:04:56   -15.675714c  -3.12  -2.41   +2.6,-0.0,-0.0
# iter:   9 10:05:53   -15.677520c  -3.16  -2.81   +2.6,-0.0,+0.0
# iter:  10 10:06:49   -15.675900c  -3.46  -2.65   +2.6,-0.0,+0.0
# iter:  11 10:07:46   -15.675793c  -4.08  -3.19   +2.6,-0.0,+0.0
# iter:  12 10:08:43   -15.675767c  -4.39  -3.45   +2.6,-0.0,+0.0
# iter:  13 10:09:39   -15.675774c  -4.68  -3.64   +2.6,-0.0,+0.0
# iter:  14 10:10:34   -15.675775c  -4.92  -3.72   +2.6,-0.0,+0.0
# iter:  15 10:11:29   -15.675774c  -5.18  -3.84   +2.6,-0.0,+0.0
# iter:  16 10:12:24   -15.675771c  -5.42  -3.90   +2.6,-0.0,+0.0
# iter:  17 10:13:20   -15.675767c  -5.65  -4.02c  +2.6,-0.0,+0.0
# iter:  18 10:14:15   -15.675761c  -5.84  -4.16c  +2.6,-0.0,+0.0
# iter:  19 10:15:10   -15.675760c  -6.10  -4.31c  +2.6,-0.0,+0.0
# iter:  20 10:16:06   -15.675761c  -6.28  -4.39c  +2.6,-0.0,+0.0
# iter:  21 10:17:01   -15.675761c  -6.54  -4.76c  +2.6,-0.0,+0.0
# iter:  22 10:17:57   -15.675762c  -6.77  -4.86c  +2.6,-0.0,+0.0
# iter:  23 10:18:53   -15.675762c  -7.10  -5.24c  +2.6,-0.0,+0.0
# iter:  24 10:19:48   -15.675762c  -7.32  -5.41c  +2.6,-0.0,+0.0
# iter:  25 10:20:43   -15.675762c  -7.52c -5.45c  +2.6,-0.0,+0.0
scf_steps: 25
energies:  # eV
  coulomb:          -5.331386
  zero:              0.051791
  xc:              -16.392240
  external:          0.000000
  kinetic:           5.999445
  spinorbit:         0.000000
  entropy:          -0.006745
  total:           -15.679134
  extrapolated:    -15.675762

dipole moment: [-4.602953, -8.101923, -7.649811]  # |e|*Ang

total magnetic moment: [2.598068, -0.000121, 0.000000]

local magnetic moments: [
  [ 2.526717, -0.000005,  0.000000],  # V  0
  [ 0.003018,  0.000056,  0.000000],  # Br 1
  [-0.001955,  0.002300,  0.000000]]  # Br 2


Fermi level: -0.650 eV

kpt = [-0.438, -0.438, 0.000], weight = 0.004:
  Band      eig [eV]   occ [0-1]
     0       -65.400       1.000
   ...
    19        -5.218       1.000
    20        -5.099       1.000
    21        -5.005       1.000
    22        -4.850       1.000
    23        -4.767       1.000
    24        -1.454       1.000
    25        -1.269       0.998
    26        -1.203       0.996
    27        -0.009       0.002
    28         0.075       0.001
    29         0.798       0.000
    30         0.885       0.000
    31         0.988       0.000
    32         1.470       0.000
    33         1.518       0.000
    34         3.756       0.000
   ...
    41         6.122       0.000

kpt = [-0.438, -0.375, 0.000], weight = 0.004:
  Band      eig [eV]   occ [0-1]
     0       -65.400       1.000
   ...
    19        -5.214       1.000
    20        -5.085       1.000
    21        -5.055       1.000
    22        -4.766       1.000
    23        -4.637       1.000
    24        -1.470       1.000
    25        -1.324       0.999
    26        -1.230       0.997
    27        -0.070       0.003
    28         0.099       0.001
    29         0.814       0.000
    30         0.871       0.000
    31         0.966       0.000
    32         1.443       0.000
    33         1.537       0.000
    34         3.475       0.000
   ...
    41         5.835       0.000

kpt = [-0.438, -0.312, 0.000], weight = 0.004:
  Band      eig [eV]   occ [0-1]
     0       -65.400       1.000
   ...
    19        -5.166       1.000
    20        -5.019       1.000
    21        -4.886       1.000
    22        -4.671       1.000
    23        -4.496       1.000
    24        -1.540       1.000
    25        -1.356       0.999
    26        -1.244       0.997
    27        -0.093       0.004
    28         0.110       0.000
    29         0.732       0.000
    30         0.913       0.000
    31         0.937       0.000
    32         1.397       0.000
    33         1.530       0.000
    34         3.226       0.000
   ...
    41         5.467       0.000
(only showing first 3 out of 256 k-points)

Gap: 0.886 eV
Transition (v -> c):
  (s=0, k=247, n=26, [0.50, 0.00, 0.00]) -> (s=0, k=114, n=27, [0.00, -0.31, 0.00])
# Writing to Band_Conv/gsq-53.gpw (mode='')

