#  __  _  _
# | _ |_)|_||  |
# |__||  | ||/\| - 24.1.0

User:   s194113@n-62-28-28
Date:   Thu May  2 09:09:51 2024
Arch:   x86_64
Pid:    16738
CWD:    /work3/s194113/10302/10302_NM/VBr2
Python: 3.8.5
gpaw:   /zhome/87/8/147075/venv-name/gpaw/gpaw (10808453a8)
_gpaw:  /zhome/87/8/147075/venv-name/gpaw/
        _gpaw.cpython-38-x86_64-linux-gnu.so (10808453a8)
ase:    /zhome/87/8/147075/venv-name/ase/ase (version 3.23.0b1-c36115a2db)
numpy:  /zhome/87/8/147075/venv-name/lib/python3.8/site-packages/numpy (version 1.24.4)
scipy:  /zhome/87/8/147075/venv-name/lib/python3.8/site-packages/scipy (version 1.10.1)
libxc:  4.3.4
units:  Angstrom and eV
cores: 12
OpenMP: False
OMP_NUM_THREADS: 1

---
input parameters:
  kpts: 
    density: 8.0
    gamma: True
  magmoms: [[2.64162512, 0, 0], [-0.02514574, 0, 0], [-0.02514574, 0, 0]]
  mixer: 
    backend: 'pulay'
    beta: 0.05
    method: 'sum'
    nmaxold: 5
    weight: 100
  mode: 
    name: 'pw'
    ecut: 800.0
    qspiral: array([0.38095238, 0.23809524, 0.        ])
  parallel: 
    kpt: None
    domain: 1
    band: 1
    order: 'kdb'
    stridebands: False
    augment_grids: False
    sl_auto: False
    sl_default: None
    sl_diagonalize: None
    sl_inverse_cholesky: None
    sl_lcao: None
    sl_lrtddft: None
    use_elpa: False
    elpasolver: '2stage'
    buffer_size: None
    gpu: False
  symmetry: 
    point_group: False
    time_reversal: False
  xc: 
    name: 'LDA'

#                        
#                        
#                        
#                        
#              Br        
#                        
#                        
#        V Br            
#                        
#                        
#                        
#                        
#                        

atoms: [  # symbols, positions [Ang] and initial magnetic moments
  [  V, [   0.000000,    0.000000,    7.448555], [ 2.642,  0.000,  0.000]], # 0
  [ Br, [   1.920224,    1.108642,    8.897111], [-0.025,  0.000,  0.000]], # 1
  [ Br, [   0.000000,    2.217284,    6.000000], [-0.025,  0.000,  0.000]]] # 2

cell: [  # Ang
#     x            y            z
  [   3.840448,    0.000000,    0.000000],
  [  -1.920224,    3.325925,    0.000000],
  [   0.000000,    0.000000,   14.897111]]

periodic: [True      , True      , False     ]
lengths:  [  3.840448,   3.840448,  14.897111]  # Ang
angles:   [ 90.000000,  90.000000, 120.000000]

symmetry:
  number of symmetries: 1
  rotations: [
    [[ 1,  0,  0], [ 0,  1,  0], [ 0,  0,  1]]]

bz sampling:
  number of bz points: 256
  number of ibz points: 256
  monkhorst-pack size: [16, 16, 1]
  monkhorst-pack shift: [0.03125, 0.03125, 0.0]
  points and weights: [
    [[ -0.43750000,  -0.43750000,   0.00000000], 0.00390625],  # 0
    [[ -0.43750000,  -0.37500000,   0.00000000], 0.00390625],  # 1
    [[ -0.43750000,  -0.31250000,   0.00000000], 0.00390625],  # 2
    [[ -0.43750000,  -0.25000000,   0.00000000], 0.00390625],  # 3
    [[ -0.43750000,  -0.18750000,   0.00000000], 0.00390625],  # 4
    [[ -0.43750000,  -0.12500000,   0.00000000], 0.00390625],  # 5
    [[ -0.43750000,  -0.06250000,   0.00000000], 0.00390625],  # 6
    [[ -0.43750000,   0.00000000,   0.00000000], 0.00390625],  # 7
    [[ -0.43750000,   0.06250000,   0.00000000], 0.00390625],  # 8
    [[ -0.43750000,   0.12500000,   0.00000000], 0.00390625],  # 9
    # ...
    [[  0.50000000,   0.50000000,   0.00000000], 0.00390625]]  # 255

plane wave coefficients: 9805
cutoff: 800.0 eV

spin-components: 4  # (non-collinear spins)
bands: 42
valence electrons: 27.0
spin-degeneracy: 1
dtype: complex128

memory:
    wave functions: 3_359_440_896  # bytes  (279_953_408 per core)

parallelization:
    kpt:    12
    domain: 1
    band:   1

density:
  components: 4
  grid points: [27 27 98]
  charge: 0.0  # |e|

potential:
  grid points: [27 27 98]

species:
  V:
    name: Vanadium
    id: 7939ce69e6bb5930668dfcf9bb1979c3
    Z: 23.0
    valence: 13
    core: 10
    charge: 0.0
    file: /zhome/86/d/1666/PAW/gpaw-setups-0.9.20000/V.LDA.gz
    compensation charges: {type: gauss,
                           rc: 0.37,
                           lmax: 2}
    cutoffs: {filter: 2.14,
              core: 0.96}
    valence states:
      #              energy  rcut
      - 3s(2.00)   -69.819   1.254
      - 4s(2.00)    -4.846   1.254
      - 3p(6.00)   -43.961   1.281
      - 4p(0.00)    -1.526   1.281
      - 3d(3.00)    -5.381   1.169
      -  d          21.830   1.169
  
    # Using partial waves for V as LCAO basis

  Br:
    name: Bromine
    id: 10a25bbcb3273ec7d8d7f6fc01d2618d
    Z: 35.0
    valence: 7
    core: 28
    charge: 0.0
    file: /zhome/86/d/1666/PAW/gpaw-setups-0.9.20000/Br.LDA.gz
    compensation charges: {type: gauss,
                           rc: 0.35,
                           lmax: 2}
    cutoffs: {filter: 1.98,
              core: 2.38}
    valence states:
      #              energy  rcut
      - 4s(2.00)   -20.306   1.111
      - 4p(5.00)    -8.003   1.111
      -  s           6.906   1.111
      -  p          19.208   1.111
      -  d           0.000   1.111
  
    # Using partial waves for Br as LCAO basis

Reference energy: -167392.690611  # eV

eigensolver:
  name: 'Davidson'
  niter: 2
  converge_bands: 'occupied'
Density mixing:
  Method: sum
  Backend: pulay
  Linear mixing parameter: 0.05
  old densities: 5
  Damping of long wavelength oscillations: 100
occupation numbers:
  Fermi-Dirac:
    width: 0.1000  # eV
  

poisson solver:
  ecut: 6400.0  # eV

xc functional:
  name: None

convergence criteria:
- Maximum [total energy] change in last 3 cyles: 0.0005 eV / valence electron
- Maximum integral of absolute [dens]ity change: 0.0001 electrons / valence electron
- Maximum integral of absolute [eigenst]ate change: 4e-08 eV^2 / valence electron
maximum number of iterations: 333

#      iter     time        total  log10-change:
#                          energy   eigst   dens
# iter:   1 09:11:18   -14.985471                  +2.6,+0.0,+0.0
# iter:   2 09:12:15   -15.655692   +0.17  -1.41   +2.6,+0.0,-0.0
# iter:   3 09:13:11   -15.627828   -0.69  -1.44   +2.6,+0.0,-0.0
# iter:   4 09:14:07   -15.646084   -1.23  -1.54   +2.6,+0.0,+0.0
# iter:   5 09:15:03   -15.715655   -1.47  -1.66   +2.6,-0.0,-0.0
# iter:   6 09:15:59   -15.682105   -2.25  -2.04   +2.6,-0.0,+0.0
# iter:   7 09:16:54   -15.677848   -2.38  -2.21   +2.6,-0.0,-0.0
# iter:   8 09:17:50   -15.675045c  -3.13  -2.42   +2.6,-0.0,+0.0
# iter:   9 09:18:45   -15.676930c  -3.17  -2.82   +2.6,-0.0,+0.0
# iter:  10 09:19:41   -15.675261c  -3.49  -2.64   +2.6,-0.0,+0.0
# iter:  11 09:20:36   -15.675107c  -4.08  -3.19   +2.6,-0.0,+0.0
# iter:  12 09:21:31   -15.675098c  -4.41  -3.50   +2.6,-0.0,+0.0
# iter:  13 09:22:27   -15.675108c  -4.71  -3.62   +2.6,-0.0,-0.0
# iter:  14 09:23:22   -15.675105c  -4.85  -3.71   +2.6,-0.0,+0.0
# iter:  15 09:24:18   -15.675091c  -5.03  -3.72   +2.6,-0.0,+0.0
# iter:  16 09:25:13   -15.675091c  -5.42  -4.29c  +2.6,-0.0,+0.0
# iter:  17 09:26:08   -15.675091c  -5.71  -4.37c  +2.6,-0.0,-0.0
# iter:  18 09:27:03   -15.675094c  -5.88  -4.39c  +2.6,-0.0,+0.0
# iter:  19 09:27:58   -15.675094c  -6.16  -4.44c  +2.6,-0.0,+0.0
# iter:  20 09:28:53   -15.675092c  -6.36  -4.67c  +2.6,-0.0,+0.0
# iter:  21 09:29:48   -15.675093c  -6.62  -4.82c  +2.6,-0.0,+0.0
# iter:  22 09:30:42   -15.675092c  -6.84  -4.88c  +2.6,-0.0,-0.0
# iter:  23 09:31:37   -15.675092c  -7.06  -5.06c  +2.6,-0.0,-0.0
# iter:  24 09:32:33   -15.675092c  -7.24  -5.09c  +2.6,-0.0,+0.0
# iter:  25 09:33:28   -15.675091c  -7.45c -5.27c  +2.6,-0.0,-0.0
scf_steps: 25
energies:  # eV
  coulomb:          -5.341821
  zero:              0.051303
  xc:              -16.396532
  external:          0.000000
  kinetic:           6.015359
  spinorbit:         0.000000
  entropy:          -0.006801
  total:           -15.678492
  extrapolated:    -15.675091

dipole moment: [-4.590997, -8.144925, -7.736497]  # |e|*Ang

total magnetic moment: [2.609518, -0.000155, -0.000000]

local magnetic moments: [
  [ 2.528051, -0.000006, -0.000000],  # V  0
  [ 0.004260,  0.000055,  0.000000],  # Br 1
  [-0.003082,  0.002937,  0.000000]]  # Br 2


Fermi level: -0.651 eV

kpt = [-0.438, -0.438, 0.000], weight = 0.004:
  Band      eig [eV]   occ [0-1]
     0       -65.399       1.000
   ...
    19        -5.211       1.000
    20        -5.085       1.000
    21        -5.021       1.000
    22        -4.832       1.000
    23        -4.776       1.000
    24        -1.462       1.000
    25        -1.271       0.998
    26        -1.200       0.996
    27        -0.010       0.002
    28         0.084       0.001
    29         0.790       0.000
    30         0.874       0.000
    31         1.006       0.000
    32         1.468       0.000
    33         1.534       0.000
    34         3.718       0.000
   ...
    41         6.017       0.000

kpt = [-0.438, -0.375, 0.000], weight = 0.004:
  Band      eig [eV]   occ [0-1]
     0       -65.399       1.000
   ...
    19        -5.201       1.000
    20        -5.107       1.000
    21        -5.042       1.000
    22        -4.732       1.000
    23        -4.652       1.000
    24        -1.481       1.000
    25        -1.318       0.999
    26        -1.228       0.997
    27        -0.075       0.003
    28         0.108       0.001
    29         0.808       0.000
    30         0.865       0.000
    31         0.981       0.000
    32         1.436       0.000
    33         1.546       0.000
    34         3.445       0.000
   ...
    41         6.230       0.000

kpt = [-0.438, -0.312, 0.000], weight = 0.004:
  Band      eig [eV]   occ [0-1]
     0       -65.399       1.000
   ...
    19        -5.174       1.000
    20        -5.025       1.000
    21        -4.864       1.000
    22        -4.635       1.000
    23        -4.509       1.000
    24        -1.544       1.000
    25        -1.337       0.999
    26        -1.251       0.998
    27        -0.108       0.004
    28         0.123       0.000
    29         0.737       0.000
    30         0.923       0.000
    31         0.927       0.000
    32         1.380       0.000
    33         1.534       0.000
    34         3.210       0.000
   ...
    41         5.526       0.000
(only showing first 3 out of 256 k-points)

Gap: 0.876 eV
Transition (v -> c):
  (s=0, k=247, n=26, [0.50, 0.00, 0.00]) -> (s=0, k=123, n=27, [0.00, 0.25, 0.00])
# Writing to Band_Conv/gsq-51.gpw (mode='')

---

timing:  # [seconds]
  Total: 1418.506  # ━━━━━━━━━━━━━━━━━━━━━━━━━━━━━━━━━━━━━━━━━━━━━━━━━━━━━━━━
  Init:    34.020  # ━╸
  SCF:   1382.821  # ━━━━━━━━━━━━━━━━━━━━━━━━━━━━━━━━━━━━━━━━━━━━━━━━━━━━━━╸

Max RSS: 2375.906  # MiB
