#  __  _  _
# | _ |_)|_||  |
# |__||  | ||/\| - 24.1.0

User:   s194113@n-62-28-28
Date:   Thu May  2 04:46:44 2024
Arch:   x86_64
Pid:    16738
CWD:    /work3/s194113/10302/10302_NM/VBr2
Python: 3.8.5
gpaw:   /zhome/87/8/147075/venv-name/gpaw/gpaw (10808453a8)
_gpaw:  /zhome/87/8/147075/venv-name/gpaw/
        _gpaw.cpython-38-x86_64-linux-gnu.so (10808453a8)
ase:    /zhome/87/8/147075/venv-name/ase/ase (version 3.23.0b1-c36115a2db)
numpy:  /zhome/87/8/147075/venv-name/lib/python3.8/site-packages/numpy (version 1.24.4)
scipy:  /zhome/87/8/147075/venv-name/lib/python3.8/site-packages/scipy (version 1.10.1)
libxc:  4.3.4
units:  Angstrom and eV
cores: 12
OpenMP: False
OMP_NUM_THREADS: 1

---
input parameters:
  kpts: 
    density: 8.0
    gamma: True
  magmoms: [[2.64162512, 0, 0], [-0.02514574, 0, 0], [-0.02514574, 0, 0]]
  mixer: 
    backend: 'pulay'
    beta: 0.05
    method: 'sum'
    nmaxold: 5
    weight: 100
  mode: 
    name: 'pw'
    ecut: 800.0
    qspiral: array([0.46825397, 0.06349206, 0.        ])
  parallel: 
    kpt: None
    domain: 1
    band: 1
    order: 'kdb'
    stridebands: False
    augment_grids: False
    sl_auto: False
    sl_default: None
    sl_diagonalize: None
    sl_inverse_cholesky: None
    sl_lcao: None
    sl_lrtddft: None
    use_elpa: False
    elpasolver: '2stage'
    buffer_size: None
    gpu: False
  symmetry: 
    point_group: False
    time_reversal: False
  xc: 
    name: 'LDA'

#                        
#                        
#                        
#                        
#              Br        
#                        
#                        
#        V Br            
#                        
#                        
#                        
#                        
#                        

atoms: [  # symbols, positions [Ang] and initial magnetic moments
  [  V, [   0.000000,    0.000000,    7.448555], [ 2.642,  0.000,  0.000]], # 0
  [ Br, [   1.920224,    1.108642,    8.897111], [-0.025,  0.000,  0.000]], # 1
  [ Br, [   0.000000,    2.217284,    6.000000], [-0.025,  0.000,  0.000]]] # 2

cell: [  # Ang
#     x            y            z
  [   3.840448,    0.000000,    0.000000],
  [  -1.920224,    3.325925,    0.000000],
  [   0.000000,    0.000000,   14.897111]]

periodic: [True      , True      , False     ]
lengths:  [  3.840448,   3.840448,  14.897111]  # Ang
angles:   [ 90.000000,  90.000000, 120.000000]

symmetry:
  number of symmetries: 1
  rotations: [
    [[ 1,  0,  0], [ 0,  1,  0], [ 0,  0,  1]]]

bz sampling:
  number of bz points: 256
  number of ibz points: 256
  monkhorst-pack size: [16, 16, 1]
  monkhorst-pack shift: [0.03125, 0.03125, 0.0]
  points and weights: [
    [[ -0.43750000,  -0.43750000,   0.00000000], 0.00390625],  # 0
    [[ -0.43750000,  -0.37500000,   0.00000000], 0.00390625],  # 1
    [[ -0.43750000,  -0.31250000,   0.00000000], 0.00390625],  # 2
    [[ -0.43750000,  -0.25000000,   0.00000000], 0.00390625],  # 3
    [[ -0.43750000,  -0.18750000,   0.00000000], 0.00390625],  # 4
    [[ -0.43750000,  -0.12500000,   0.00000000], 0.00390625],  # 5
    [[ -0.43750000,  -0.06250000,   0.00000000], 0.00390625],  # 6
    [[ -0.43750000,   0.00000000,   0.00000000], 0.00390625],  # 7
    [[ -0.43750000,   0.06250000,   0.00000000], 0.00390625],  # 8
    [[ -0.43750000,   0.12500000,   0.00000000], 0.00390625],  # 9
    # ...
    [[  0.50000000,   0.50000000,   0.00000000], 0.00390625]]  # 255

plane wave coefficients: 9805
cutoff: 800.0 eV

spin-components: 4  # (non-collinear spins)
bands: 42
valence electrons: 27.0
spin-degeneracy: 1
dtype: complex128

memory:
    wave functions: 3_359_440_896  # bytes  (279_953_408 per core)

parallelization:
    kpt:    12
    domain: 1
    band:   1

density:
  components: 4
  grid points: [27 27 98]
  charge: 0.0  # |e|

potential:
  grid points: [27 27 98]

species:
  V:
    name: Vanadium
    id: 7939ce69e6bb5930668dfcf9bb1979c3
    Z: 23.0
    valence: 13
    core: 10
    charge: 0.0
    file: /zhome/86/d/1666/PAW/gpaw-setups-0.9.20000/V.LDA.gz
    compensation charges: {type: gauss,
                           rc: 0.37,
                           lmax: 2}
    cutoffs: {filter: 2.14,
              core: 0.96}
    valence states:
      #              energy  rcut
      - 3s(2.00)   -69.819   1.254
      - 4s(2.00)    -4.846   1.254
      - 3p(6.00)   -43.961   1.281
      - 4p(0.00)    -1.526   1.281
      - 3d(3.00)    -5.381   1.169
      -  d          21.830   1.169
  
    # Using partial waves for V as LCAO basis

  Br:
    name: Bromine
    id: 10a25bbcb3273ec7d8d7f6fc01d2618d
    Z: 35.0
    valence: 7
    core: 28
    charge: 0.0
    file: /zhome/86/d/1666/PAW/gpaw-setups-0.9.20000/Br.LDA.gz
    compensation charges: {type: gauss,
                           rc: 0.35,
                           lmax: 2}
    cutoffs: {filter: 1.98,
              core: 2.38}
    valence states:
      #              energy  rcut
      - 4s(2.00)   -20.306   1.111
      - 4p(5.00)    -8.003   1.111
      -  s           6.906   1.111
      -  p          19.208   1.111
      -  d           0.000   1.111
  
    # Using partial waves for Br as LCAO basis

Reference energy: -167392.690611  # eV

eigensolver:
  name: 'Davidson'
  niter: 2
  converge_bands: 'occupied'
Density mixing:
  Method: sum
  Backend: pulay
  Linear mixing parameter: 0.05
  old densities: 5
  Damping of long wavelength oscillations: 100
occupation numbers:
  Fermi-Dirac:
    width: 0.1000  # eV
  

poisson solver:
  ecut: 6400.0  # eV

xc functional:
  name: None

convergence criteria:
- Maximum [total energy] change in last 3 cyles: 0.0005 eV / valence electron
- Maximum integral of absolute [dens]ity change: 0.0001 electrons / valence electron
- Maximum integral of absolute [eigenst]ate change: 4e-08 eV^2 / valence electron
maximum number of iterations: 333

#      iter     time        total  log10-change:
#                          energy   eigst   dens
# iter:   1 04:48:11   -15.108958                  +2.6,+0.0,+0.0
# iter:   2 04:49:07   -15.667746   +0.11  -1.41   +2.6,+0.0,-0.0
# iter:   3 04:50:01   -15.621617   -0.75  -1.44   +2.6,+0.0,-0.0
# iter:   4 04:50:57   -15.641279   -1.27  -1.54   +2.6,+0.0,-0.0
# iter:   5 04:51:51   -15.700359   -1.57  -1.66   +2.7,+0.0,-0.0
# iter:   6 04:52:47   -15.676381   -2.30  -2.08   +2.7,-0.0,-0.0
# iter:   7 04:53:42   -15.672764   -2.39  -2.22   +2.7,-0.0,-0.0
# iter:   8 04:54:37   -15.669766c  -3.16  -2.46   +2.7,-0.0,+0.0
# iter:   9 04:55:32   -15.671860c  -3.20  -2.83   +2.7,-0.0,-0.0
# iter:  10 04:56:26   -15.670002c  -3.50  -2.61   +2.7,-0.0,+0.0
# iter:  11 04:57:21   -15.669804c  -4.04  -3.22   +2.7,-0.0,-0.0
# iter:  12 04:58:16   -15.669805c  -4.48  -3.63   +2.7,-0.0,-0.0
# iter:  13 04:59:10   -15.669819c  -4.75  -3.69   +2.7,-0.0,-0.0
# iter:  14 05:00:05   -15.669800c  -4.82  -3.79   +2.7,-0.0,-0.0
# iter:  15 05:01:00   -15.669796c  -5.22  -3.75   +2.7,-0.0,-0.0
# iter:  16 05:01:55   -15.669797c  -5.44  -3.92   +2.7,-0.0,-0.0
# iter:  17 05:02:50   -15.669796c  -5.71  -4.04c  +2.7,-0.0,-0.0
# iter:  18 05:03:44   -15.669796c  -5.97  -4.14c  +2.7,-0.0,-0.0
# iter:  19 05:04:39   -15.669797c  -6.17  -4.33c  +2.7,-0.0,-0.0
# iter:  20 05:05:33   -15.669801c  -6.36  -4.38c  +2.7,-0.0,-0.0
# iter:  21 05:06:28   -15.669802c  -6.57  -4.50c  +2.7,-0.0,-0.0
# iter:  22 05:07:22   -15.669802c  -6.83  -4.53c  +2.7,-0.0,-0.0
# iter:  23 05:08:17   -15.669802c  -7.08  -4.59c  +2.7,-0.0,-0.0
# iter:  24 05:09:12   -15.669803c  -7.27  -4.62c  +2.7,-0.0,-0.0
# iter:  25 05:10:07   -15.669803c  -7.40c -4.65c  +2.7,-0.0,-0.0
scf_steps: 25
energies:  # eV
  coulomb:          -5.435994
  zero:              0.052450
  xc:              -16.424842
  external:          0.000000
  kinetic:           6.142320
  spinorbit:         0.000000
  entropy:          -0.007473
  total:           -15.673539
  extrapolated:    -15.669803

dipole moment: [-4.520156, -8.348190, -8.049665]  # |e|*Ang

total magnetic moment: [2.653409, -0.000086, -0.000000]

local magnetic moments: [
  [ 2.536770, -0.000003, -0.000000],  # V  0
  [ 0.007821,  0.000026,  0.000000],  # Br 1
  [-0.007668,  0.001576,  0.000000]]  # Br 2


Fermi level: -0.664 eV

kpt = [-0.438, -0.438, 0.000], weight = 0.004:
  Band      eig [eV]   occ [0-1]
     0       -65.393       1.000
   ...
    19        -5.193       1.000
    20        -5.071       1.000
    21        -4.964       1.000
    22        -4.870       1.000
    23        -4.623       1.000
    24        -1.509       1.000
    25        -1.305       0.998
    26        -1.181       0.994
    27        -0.029       0.002
    28         0.130       0.000
    29         0.744       0.000
    30         0.786       0.000
    31         1.071       0.000
    32         1.458       0.000
    33         1.598       0.000
    34         3.536       0.000
   ...
    41         6.042       0.000

kpt = [-0.438, -0.375, 0.000], weight = 0.004:
  Band      eig [eV]   occ [0-1]
     0       -65.393       1.000
   ...
    19        -5.163       1.000
    20        -5.077       1.000
    21        -4.854       1.000
    22        -4.760       1.000
    23        -4.522       1.000
    24        -1.528       1.000
    25        -1.341       0.999
    26        -1.194       0.995
    27        -0.089       0.003
    28         0.148       0.000
    29         0.769       0.000
    30         0.802       0.000
    31         1.066       0.000
    32         1.385       0.000
    33         1.574       0.000
    34         3.327       0.000
   ...
    41         6.143       0.000

kpt = [-0.438, -0.312, 0.000], weight = 0.004:
  Band      eig [eV]   occ [0-1]
     0       -65.393       1.000
   ...
    19        -5.201       1.000
    20        -5.077       1.000
    21        -4.690       1.000
    22        -4.608       1.000
    23        -4.427       1.000
    24        -1.541       1.000
    25        -1.331       0.999
    26        -1.234       0.997
    27        -0.167       0.007
    28         0.172       0.000
    29         0.758       0.000
    30         0.854       0.000
    31         0.991       0.000
    32         1.273       0.000
    33         1.560       0.000
    34         3.223       0.000
   ...
    41         5.646       0.000
(only showing first 3 out of 256 k-points)

Gap: 0.833 eV
Transition (v -> c):
  (s=0, k=247, n=26, [0.50, 0.00, 0.00]) -> (s=0, k=115, n=27, [0.00, -0.25, 0.00])
# Writing to Band_Conv/gsq-40.gpw (mode='')

---

timing:  # [seconds]
  Total: 1404.957  # ━━━━━━━━━━━━━━━━━━━━━━━━━━━━━━━━━━━━━━━━━━━━━━━━━━━━━━━━
  Init:    34.446  # ━╸
  SCF:   1368.828  # ━━━━━━━━━━━━━━━━━━━━━━━━━━━━━━━━━━━━━━━━━━━━━━━━━━━━━━╸

Max RSS: 2087.953  # MiB
