#  __  _  _
# | _ |_)|_||  |
# |__||  | ||/\| - 24.1.0

User:   s194113@n-62-28-28
Date:   Thu May  2 00:55:55 2024
Arch:   x86_64
Pid:    16738
CWD:    /work3/s194113/10302/10302_NM/VBr2
Python: 3.8.5
gpaw:   /zhome/87/8/147075/venv-name/gpaw/gpaw (10808453a8)
_gpaw:  /zhome/87/8/147075/venv-name/gpaw/
        _gpaw.cpython-38-x86_64-linux-gnu.so (10808453a8)
ase:    /zhome/87/8/147075/venv-name/ase/ase (version 3.23.0b1-c36115a2db)
numpy:  /zhome/87/8/147075/venv-name/lib/python3.8/site-packages/numpy (version 1.24.4)
scipy:  /zhome/87/8/147075/venv-name/lib/python3.8/site-packages/scipy (version 1.10.1)
libxc:  4.3.4
units:  Angstrom and eV
cores: 12
OpenMP: False
OMP_NUM_THREADS: 1

---
input parameters:
  kpts: 
    density: 8.0
    gamma: True
  magmoms: [[2.64162512, 0, 0], [-0.02514574, 0, 0], [-0.02514574, 0, 0]]
  mixer: 
    backend: 'pulay'
    beta: 0.05
    method: 'sum'
    nmaxold: 5
    weight: 100
  mode: 
    name: 'pw'
    ecut: 800.0
    qspiral: array([0.41666667, 0.        , 0.        ])
  parallel: 
    kpt: None
    domain: 1
    band: 1
    order: 'kdb'
    stridebands: False
    augment_grids: False
    sl_auto: False
    sl_default: None
    sl_diagonalize: None
    sl_inverse_cholesky: None
    sl_lcao: None
    sl_lrtddft: None
    use_elpa: False
    elpasolver: '2stage'
    buffer_size: None
    gpu: False
  symmetry: 
    point_group: False
    time_reversal: False
  xc: 
    name: 'LDA'

#                        
#                        
#                        
#                        
#              Br        
#                        
#                        
#        V Br            
#                        
#                        
#                        
#                        
#                        

atoms: [  # symbols, positions [Ang] and initial magnetic moments
  [  V, [   0.000000,    0.000000,    7.448555], [ 2.642,  0.000,  0.000]], # 0
  [ Br, [   1.920224,    1.108642,    8.897111], [-0.025,  0.000,  0.000]], # 1
  [ Br, [   0.000000,    2.217284,    6.000000], [-0.025,  0.000,  0.000]]] # 2

cell: [  # Ang
#     x            y            z
  [   3.840448,    0.000000,    0.000000],
  [  -1.920224,    3.325925,    0.000000],
  [   0.000000,    0.000000,   14.897111]]

periodic: [True      , True      , False     ]
lengths:  [  3.840448,   3.840448,  14.897111]  # Ang
angles:   [ 90.000000,  90.000000, 120.000000]

symmetry:
  number of symmetries: 1
  rotations: [
    [[ 1,  0,  0], [ 0,  1,  0], [ 0,  0,  1]]]

bz sampling:
  number of bz points: 256
  number of ibz points: 256
  monkhorst-pack size: [16, 16, 1]
  monkhorst-pack shift: [0.03125, 0.03125, 0.0]
  points and weights: [
    [[ -0.43750000,  -0.43750000,   0.00000000], 0.00390625],  # 0
    [[ -0.43750000,  -0.37500000,   0.00000000], 0.00390625],  # 1
    [[ -0.43750000,  -0.31250000,   0.00000000], 0.00390625],  # 2
    [[ -0.43750000,  -0.25000000,   0.00000000], 0.00390625],  # 3
    [[ -0.43750000,  -0.18750000,   0.00000000], 0.00390625],  # 4
    [[ -0.43750000,  -0.12500000,   0.00000000], 0.00390625],  # 5
    [[ -0.43750000,  -0.06250000,   0.00000000], 0.00390625],  # 6
    [[ -0.43750000,   0.00000000,   0.00000000], 0.00390625],  # 7
    [[ -0.43750000,   0.06250000,   0.00000000], 0.00390625],  # 8
    [[ -0.43750000,   0.12500000,   0.00000000], 0.00390625],  # 9
    # ...
    [[  0.50000000,   0.50000000,   0.00000000], 0.00390625]]  # 255

plane wave coefficients: 9805
cutoff: 800.0 eV

spin-components: 4  # (non-collinear spins)
bands: 42
valence electrons: 27.0
spin-degeneracy: 1
dtype: complex128

memory:
    wave functions: 3_359_440_896  # bytes  (279_953_408 per core)

parallelization:
    kpt:    12
    domain: 1
    band:   1

density:
  components: 4
  grid points: [27 27 98]
  charge: 0.0  # |e|

potential:
  grid points: [27 27 98]

species:
  V:
    name: Vanadium
    id: 7939ce69e6bb5930668dfcf9bb1979c3
    Z: 23.0
    valence: 13
    core: 10
    charge: 0.0
    file: /zhome/86/d/1666/PAW/gpaw-setups-0.9.20000/V.LDA.gz
    compensation charges: {type: gauss,
                           rc: 0.37,
                           lmax: 2}
    cutoffs: {filter: 2.14,
              core: 0.96}
    valence states:
      #              energy  rcut
      - 3s(2.00)   -69.819   1.254
      - 4s(2.00)    -4.846   1.254
      - 3p(6.00)   -43.961   1.281
      - 4p(0.00)    -1.526   1.281
      - 3d(3.00)    -5.381   1.169
      -  d          21.830   1.169
  
    # Using partial waves for V as LCAO basis

  Br:
    name: Bromine
    id: 10a25bbcb3273ec7d8d7f6fc01d2618d
    Z: 35.0
    valence: 7
    core: 28
    charge: 0.0
    file: /zhome/86/d/1666/PAW/gpaw-setups-0.9.20000/Br.LDA.gz
    compensation charges: {type: gauss,
                           rc: 0.35,
                           lmax: 2}
    cutoffs: {filter: 1.98,
              core: 2.38}
    valence states:
      #              energy  rcut
      - 4s(2.00)   -20.306   1.111
      - 4p(5.00)    -8.003   1.111
      -  s           6.906   1.111
      -  p          19.208   1.111
      -  d           0.000   1.111
  
    # Using partial waves for Br as LCAO basis

Reference energy: -167392.690611  # eV

eigensolver:
  name: 'Davidson'
  niter: 2
  converge_bands: 'occupied'
Density mixing:
  Method: sum
  Backend: pulay
  Linear mixing parameter: 0.05
  old densities: 5
  Damping of long wavelength oscillations: 100
occupation numbers:
  Fermi-Dirac:
    width: 0.1000  # eV
  

poisson solver:
  ecut: 6400.0  # eV

xc functional:
  name: None

convergence criteria:
- Maximum [total energy] change in last 3 cyles: 0.0005 eV / valence electron
- Maximum integral of absolute [dens]ity change: 0.0001 electrons / valence electron
- Maximum integral of absolute [eigenst]ate change: 4e-08 eV^2 / valence electron
maximum number of iterations: 333

#      iter     time        total  log10-change:
#                          energy   eigst   dens
# iter:   1 00:57:23   -15.333806                  +2.6,+0.0,+0.0
# iter:   2 00:58:18   -15.696787   -0.03  -1.40   +2.6,+0.0,+0.0
# iter:   3 00:59:13   -15.619792   -0.85  -1.44   +2.6,+0.0,+0.0
# iter:   4 01:00:10   -15.640893   -1.34  -1.55   +2.7,-0.0,-0.0
# iter:   5 01:01:06   -15.693474   -1.69  -1.67   +2.7,-0.0,-0.0
# iter:   6 01:02:01   -15.675674   -2.41  -2.10   +2.7,-0.0,-0.0
# iter:   7 01:02:57   -15.671525   -2.40  -2.21   +2.7,-0.0,-0.0
# iter:   8 01:03:53   -15.668227c  -3.24  -2.48   +2.7,-0.0,-0.0
# iter:   9 01:04:49   -15.669164c  -3.39  -2.84   +2.7,-0.0,-0.0
# iter:  10 01:05:44   -15.668568c  -3.85  -2.72   +2.7,-0.0,+0.0
# iter:  11 01:06:40   -15.668244c  -4.13  -3.14   +2.7,-0.0,-0.0
# iter:  12 01:07:36   -15.668243c  -4.62  -3.68   +2.7,-0.0,+0.0
# iter:  13 01:08:34   -15.668234c  -4.86  -3.70   +2.7,-0.0,+0.0
# iter:  14 01:09:29   -15.668224c  -5.00  -3.74   +2.7,-0.0,+0.0
# iter:  15 01:10:25   -15.668240c  -5.37  -4.00c  +2.7,-0.0,-0.0
# iter:  16 01:11:20   -15.668234c  -5.55  -3.97   +2.7,-0.0,-0.0
# iter:  17 01:12:15   -15.668234c  -5.80  -4.23c  +2.7,-0.0,-0.0
# iter:  18 01:13:10   -15.668239c  -6.01  -4.27c  +2.7,-0.0,-0.0
# iter:  19 01:14:05   -15.668238c  -6.38  -4.41c  +2.7,-0.0,-0.0
# iter:  20 01:14:59   -15.668238c  -6.56  -4.53c  +2.7,-0.0,-0.0
# iter:  21 01:15:55   -15.668240c  -6.65  -4.60c  +2.7,-0.0,+0.0
# iter:  22 01:16:50   -15.668239c  -6.87  -4.72c  +2.7,-0.0,-0.0
# iter:  23 01:17:45   -15.668240c  -7.34  -5.04c  +2.7,-0.0,+0.0
# iter:  24 01:18:40   -15.668241c  -7.43c -5.08c  +2.7,-0.0,+0.0
scf_steps: 24
energies:  # eV
  coulomb:          -5.477891
  zero:              0.051051
  xc:              -16.443773
  external:          0.000000
  kinetic:           6.206085
  spinorbit:         0.000000
  entropy:          -0.007424
  total:           -15.671953
  extrapolated:    -15.668241

dipole moment: [-4.631448, -8.535169, -8.532165]  # |e|*Ang

total magnetic moment: [2.724019, -0.000909, 0.000000]

local magnetic moments: [
  [ 2.543539, -0.000037, -0.000000],  # V  0
  [ 0.005253,  0.010610, -0.000000],  # Br 1
  [-0.009852,  0.006563,  0.000000]]  # Br 2


Fermi level: -0.653 eV

kpt = [-0.438, -0.438, 0.000], weight = 0.004:
  Band      eig [eV]   occ [0-1]
     0       -65.385       1.000
   ...
    19        -5.204       1.000
    20        -5.022       1.000
    21        -4.930       1.000
    22        -4.793       1.000
    23        -4.601       1.000
    24        -1.574       1.000
    25        -1.281       0.998
    26        -1.170       0.994
    27        -0.012       0.002
    28         0.143       0.000
    29         0.637       0.000
    30         0.862       0.000
    31         1.097       0.000
    32         1.483       0.000
    33         1.609       0.000
    34         3.298       0.000
   ...
    41         5.999       0.000

kpt = [-0.438, -0.375, 0.000], weight = 0.004:
  Band      eig [eV]   occ [0-1]
     0       -65.385       1.000
   ...
    19        -5.137       1.000
    20        -4.975       1.000
    21        -4.868       1.000
    22        -4.740       1.000
    23        -4.513       1.000
    24        -1.580       1.000
    25        -1.299       0.998
    26        -1.187       0.995
    27        -0.068       0.003
    28         0.163       0.000
    29         0.703       0.000
    30         0.883       0.000
    31         1.082       0.000
    32         1.416       0.000
    33         1.581       0.000
    34         3.165       0.000
   ...
    41         6.095       0.000

kpt = [-0.438, -0.312, 0.000], weight = 0.004:
  Band      eig [eV]   occ [0-1]
     0       -65.385       1.000
   ...
    19        -5.139       1.000
    20        -5.094       1.000
    21        -4.759       1.000
    22        -4.680       1.000
    23        -4.416       1.000
    24        -1.526       1.000
    25        -1.298       0.998
    26        -1.230       0.997
    27        -0.140       0.006
    28         0.168       0.000
    29         0.770       0.000
    30         0.913       0.000
    31         0.978       0.000
    32         1.311       0.000
    33         1.563       0.000
    34         3.287       0.000
   ...
    41         5.994       0.000
(only showing first 3 out of 256 k-points)

Gap: 0.826 eV
Transition (v -> c):
  (s=0, k=247, n=26, [0.50, 0.00, 0.00]) -> (s=0, k=123, n=27, [0.00, 0.25, 0.00])
# Writing to Band_Conv/gsq-30.gpw (mode='')

---

timing:  # [seconds]
  Total: 1366.458  # ━━━━━━━━━━━━━━━━━━━━━━━━━━━━━━━━━━━━━━━━━━━━━━━━━━━━━━━━
  Init:    34.150  # ━╸
  SCF:   1330.644  # ━━━━━━━━━━━━━━━━━━━━━━━━━━━━━━━━━━━━━━━━━━━━━━━━━━━━━━╸

Max RSS: 1879.844  # MiB
