#  __  _  _
# | _ |_)|_||  |
# |__||  | ||/\| - 24.1.0

User:   s194113@n-62-28-28
Date:   Thu May  2 02:03:55 2024
Arch:   x86_64
Pid:    16738
CWD:    /work3/s194113/10302/10302_NM/VBr2
Python: 3.8.5
gpaw:   /zhome/87/8/147075/venv-name/gpaw/gpaw (10808453a8)
_gpaw:  /zhome/87/8/147075/venv-name/gpaw/
        _gpaw.cpython-38-x86_64-linux-gnu.so (10808453a8)
ase:    /zhome/87/8/147075/venv-name/ase/ase (version 3.23.0b1-c36115a2db)
numpy:  /zhome/87/8/147075/venv-name/lib/python3.8/site-packages/numpy (version 1.24.4)
scipy:  /zhome/87/8/147075/venv-name/lib/python3.8/site-packages/scipy (version 1.10.1)
libxc:  4.3.4
units:  Angstrom and eV
cores: 12
OpenMP: False
OMP_NUM_THREADS: 1

---
input parameters:
  kpts: 
    density: 8.0
    gamma: True
  magmoms: [[2.64162512, 0, 0], [-0.02514574, 0, 0], [-0.02514574, 0, 0]]
  mixer: 
    backend: 'pulay'
    beta: 0.05
    method: 'sum'
    nmaxold: 5
    weight: 100
  mode: 
    name: 'pw'
    ecut: 800.0
    qspiral: array([0.45833333, 0.        , 0.        ])
  parallel: 
    kpt: None
    domain: 1
    band: 1
    order: 'kdb'
    stridebands: False
    augment_grids: False
    sl_auto: False
    sl_default: None
    sl_diagonalize: None
    sl_inverse_cholesky: None
    sl_lcao: None
    sl_lrtddft: None
    use_elpa: False
    elpasolver: '2stage'
    buffer_size: None
    gpu: False
  symmetry: 
    point_group: False
    time_reversal: False
  xc: 
    name: 'LDA'

#                        
#                        
#                        
#                        
#              Br        
#                        
#                        
#        V Br            
#                        
#                        
#                        
#                        
#                        

atoms: [  # symbols, positions [Ang] and initial magnetic moments
  [  V, [   0.000000,    0.000000,    7.448555], [ 2.642,  0.000,  0.000]], # 0
  [ Br, [   1.920224,    1.108642,    8.897111], [-0.025,  0.000,  0.000]], # 1
  [ Br, [   0.000000,    2.217284,    6.000000], [-0.025,  0.000,  0.000]]] # 2

cell: [  # Ang
#     x            y            z
  [   3.840448,    0.000000,    0.000000],
  [  -1.920224,    3.325925,    0.000000],
  [   0.000000,    0.000000,   14.897111]]

periodic: [True      , True      , False     ]
lengths:  [  3.840448,   3.840448,  14.897111]  # Ang
angles:   [ 90.000000,  90.000000, 120.000000]

symmetry:
  number of symmetries: 1
  rotations: [
    [[ 1,  0,  0], [ 0,  1,  0], [ 0,  0,  1]]]

bz sampling:
  number of bz points: 256
  number of ibz points: 256
  monkhorst-pack size: [16, 16, 1]
  monkhorst-pack shift: [0.03125, 0.03125, 0.0]
  points and weights: [
    [[ -0.43750000,  -0.43750000,   0.00000000], 0.00390625],  # 0
    [[ -0.43750000,  -0.37500000,   0.00000000], 0.00390625],  # 1
    [[ -0.43750000,  -0.31250000,   0.00000000], 0.00390625],  # 2
    [[ -0.43750000,  -0.25000000,   0.00000000], 0.00390625],  # 3
    [[ -0.43750000,  -0.18750000,   0.00000000], 0.00390625],  # 4
    [[ -0.43750000,  -0.12500000,   0.00000000], 0.00390625],  # 5
    [[ -0.43750000,  -0.06250000,   0.00000000], 0.00390625],  # 6
    [[ -0.43750000,   0.00000000,   0.00000000], 0.00390625],  # 7
    [[ -0.43750000,   0.06250000,   0.00000000], 0.00390625],  # 8
    [[ -0.43750000,   0.12500000,   0.00000000], 0.00390625],  # 9
    # ...
    [[  0.50000000,   0.50000000,   0.00000000], 0.00390625]]  # 255

plane wave coefficients: 9805
cutoff: 800.0 eV

spin-components: 4  # (non-collinear spins)
bands: 42
valence electrons: 27.0
spin-degeneracy: 1
dtype: complex128

memory:
    wave functions: 3_359_440_896  # bytes  (279_953_408 per core)

parallelization:
    kpt:    12
    domain: 1
    band:   1

density:
  components: 4
  grid points: [27 27 98]
  charge: 0.0  # |e|

potential:
  grid points: [27 27 98]

species:
  V:
    name: Vanadium
    id: 7939ce69e6bb5930668dfcf9bb1979c3
    Z: 23.0
    valence: 13
    core: 10
    charge: 0.0
    file: /zhome/86/d/1666/PAW/gpaw-setups-0.9.20000/V.LDA.gz
    compensation charges: {type: gauss,
                           rc: 0.37,
                           lmax: 2}
    cutoffs: {filter: 2.14,
              core: 0.96}
    valence states:
      #              energy  rcut
      - 3s(2.00)   -69.819   1.254
      - 4s(2.00)    -4.846   1.254
      - 3p(6.00)   -43.961   1.281
      - 4p(0.00)    -1.526   1.281
      - 3d(3.00)    -5.381   1.169
      -  d          21.830   1.169
  
    # Using partial waves for V as LCAO basis

  Br:
    name: Bromine
    id: 10a25bbcb3273ec7d8d7f6fc01d2618d
    Z: 35.0
    valence: 7
    core: 28
    charge: 0.0
    file: /zhome/86/d/1666/PAW/gpaw-setups-0.9.20000/Br.LDA.gz
    compensation charges: {type: gauss,
                           rc: 0.35,
                           lmax: 2}
    cutoffs: {filter: 1.98,
              core: 2.38}
    valence states:
      #              energy  rcut
      - 4s(2.00)   -20.306   1.111
      - 4p(5.00)    -8.003   1.111
      -  s           6.906   1.111
      -  p          19.208   1.111
      -  d           0.000   1.111
  
    # Using partial waves for Br as LCAO basis

Reference energy: -167392.690611  # eV

eigensolver:
  name: 'Davidson'
  niter: 2
  converge_bands: 'occupied'
Density mixing:
  Method: sum
  Backend: pulay
  Linear mixing parameter: 0.05
  old densities: 5
  Damping of long wavelength oscillations: 100
occupation numbers:
  Fermi-Dirac:
    width: 0.1000  # eV
  

poisson solver:
  ecut: 6400.0  # eV

xc functional:
  name: None

convergence criteria:
- Maximum [total energy] change in last 3 cyles: 0.0005 eV / valence electron
- Maximum integral of absolute [dens]ity change: 0.0001 electrons / valence electron
- Maximum integral of absolute [eigenst]ate change: 4e-08 eV^2 / valence electron
maximum number of iterations: 333

#      iter     time        total  log10-change:
#                          energy   eigst   dens
# iter:   1 02:05:22   -15.232032                  +2.6,+0.0,+0.0
# iter:   2 02:06:18   -15.683549   +0.04  -1.41   +2.6,+0.0,-0.0
# iter:   3 02:07:13   -15.620531   -0.80  -1.44   +2.6,+0.0,-0.0
# iter:   4 02:08:10   -15.641011   -1.31  -1.55   +2.6,+0.0,-0.0
# iter:   5 02:09:05   -15.696354   -1.63  -1.66   +2.7,-0.0,-0.0
# iter:   6 02:10:01   -15.676035   -2.36  -2.09   +2.7,-0.0,-0.0
# iter:   7 02:10:57   -15.671992   -2.39  -2.21   +2.7,-0.0,-0.0
# iter:   8 02:11:53   -15.668888c  -3.21  -2.47   +2.7,-0.0,-0.0
# iter:   9 02:12:48   -15.670447c  -3.27  -2.84   +2.7,-0.0,-0.0
# iter:  10 02:13:44   -15.669192c  -3.72  -2.65   +2.7,-0.0,-0.0
# iter:  11 02:14:40   -15.668912c  -4.07  -3.16   +2.7,-0.0,-0.0
# iter:  12 02:15:35   -15.668911c  -4.55  -3.66   +2.7,-0.0,-0.0
# iter:  13 02:16:31   -15.668913c  -4.80  -3.70   +2.7,-0.0,-0.0
# iter:  14 02:17:26   -15.668899c  -4.82  -3.67   +2.7,-0.0,-0.0
# iter:  15 02:18:21   -15.668900c  -5.34  -4.05c  +2.7,-0.0,-0.0
# iter:  16 02:19:16   -15.668912c  -5.52  -4.14c  +2.7,-0.0,-0.0
# iter:  17 02:20:11   -15.668906c  -5.75  -4.13c  +2.7,-0.0,-0.0
# iter:  18 02:21:07   -15.668906c  -6.06  -4.46c  +2.7,-0.0,-0.0
# iter:  19 02:22:02   -15.668909c  -6.28  -4.50c  +2.7,-0.0,-0.0
# iter:  20 02:22:57   -15.668908c  -6.54  -4.61c  +2.7,-0.0,-0.0
# iter:  21 02:23:52   -15.668909c  -6.74  -4.67c  +2.7,-0.0,-0.0
# iter:  22 02:24:47   -15.668909c  -6.95  -4.92c  +2.7,-0.0,-0.0
# iter:  23 02:25:43   -15.668910c  -7.18  -5.14c  +2.7,-0.0,-0.0
# iter:  24 02:26:38   -15.668910c  -7.44c -5.34c  +2.7,-0.0,-0.0
scf_steps: 24
energies:  # eV
  coulomb:          -5.475030
  zero:              0.051142
  xc:              -16.435377
  external:          0.000000
  kinetic:           6.194125
  spinorbit:         0.000000
  entropy:          -0.007538
  total:           -15.672678
  extrapolated:    -15.668910

dipole moment: [-4.561861, -8.469521, -8.306150]  # |e|*Ang

total magnetic moment: [2.690316, -0.000475, -0.000000]

local magnetic moments: [
  [ 2.539339, -0.000019, -0.000000],  # V  0
  [ 0.007329,  0.005536,  0.000000],  # Br 1
  [-0.008511,  0.003450,  0.000000]]  # Br 2


Fermi level: -0.662 eV

kpt = [-0.438, -0.438, 0.000], weight = 0.004:
  Band      eig [eV]   occ [0-1]
     0       -65.390       1.000
   ...
    19        -5.216       1.000
    20        -5.018       1.000
    21        -4.956       1.000
    22        -4.806       1.000
    23        -4.573       1.000
    24        -1.546       1.000
    25        -1.307       0.998
    26        -1.172       0.994
    27        -0.029       0.002
    28         0.138       0.000
    29         0.687       0.000
    30         0.802       0.000
    31         1.086       0.000
    32         1.462       0.000
    33         1.600       0.000
    34         3.401       0.000
   ...
    41         5.967       0.000

kpt = [-0.438, -0.375, 0.000], weight = 0.004:
  Band      eig [eV]   occ [0-1]
     0       -65.390       1.000
   ...
    19        -5.146       1.000
    20        -4.996       1.000
    21        -4.854       1.000
    22        -4.737       1.000
    23        -4.480       1.000
    24        -1.561       1.000
    25        -1.331       0.999
    26        -1.186       0.995
    27        -0.088       0.003
    28         0.161       0.000
    29         0.731       0.000
    30         0.827       0.000
    31         1.081       0.000
    32         1.386       0.000
    33         1.579       0.000
    34         3.228       0.000
   ...
    41         5.978       0.000

kpt = [-0.438, -0.312, 0.000], weight = 0.004:
  Band      eig [eV]   occ [0-1]
     0       -65.390       1.000
   ...
    19        -5.135       1.000
    20        -5.110       1.000
    21        -4.717       1.000
    22        -4.639       1.000
    23        -4.386       1.000
    24        -1.531       1.000
    25        -1.326       0.999
    26        -1.229       0.997
    27        -0.164       0.007
    28         0.176       0.000
    29         0.766       0.000
    30         0.868       0.000
    31         0.989       0.000
    32         1.275       0.000
    33         1.566       0.000
    34         3.262       0.000
   ...
    41         5.802       0.000
(only showing first 3 out of 256 k-points)

Gap: 0.825 eV
Transition (v -> c):
  (s=0, k=247, n=26, [0.50, 0.00, 0.00]) -> (s=0, k=123, n=27, [0.00, 0.25, 0.00])
# Writing to Band_Conv/gsq-33.gpw (mode='')

---

timing:  # [seconds]
  Total: 1363.128  # ━━━━━━━━━━━━━━━━━━━━━━━━━━━━━━━━━━━━━━━━━━━━━━━━━━━━━━━━
  Init:    33.959  # ━╸
  SCF:   1328.837  # ━━━━━━━━━━━━━━━━━━━━━━━━━━━━━━━━━━━━━━━━━━━━━━━━━━━━━━╸

Max RSS: 1912.707  # MiB
