#  __  _  _
# | _ |_)|_||  |
# |__||  | ||/\| - 24.1.0

User:   s194113@n-62-28-28
Date:   Thu May  2 11:55:34 2024
Arch:   x86_64
Pid:    16738
CWD:    /work3/s194113/10302/10302_NM/VBr2
Python: 3.8.5
gpaw:   /zhome/87/8/147075/venv-name/gpaw/gpaw (10808453a8)
_gpaw:  /zhome/87/8/147075/venv-name/gpaw/
        _gpaw.cpython-38-x86_64-linux-gnu.so (10808453a8)
ase:    /zhome/87/8/147075/venv-name/ase/ase (version 3.23.0b1-c36115a2db)
numpy:  /zhome/87/8/147075/venv-name/lib/python3.8/site-packages/numpy (version 1.24.4)
scipy:  /zhome/87/8/147075/venv-name/lib/python3.8/site-packages/scipy (version 1.10.1)
libxc:  4.3.4
units:  Angstrom and eV
cores: 12
OpenMP: False
OMP_NUM_THREADS: 1

---
input parameters:
  kpts: 
    density: 8.0
    gamma: True
  magmoms: [[2.64162512, 0, 0], [-0.02514574, 0, 0], [-0.02514574, 0, 0]]
  mixer: 
    backend: 'pulay'
    beta: 0.05
    method: 'sum'
    nmaxold: 5
    weight: 100
  mode: 
    name: 'pw'
    ecut: 800.0
    qspiral: array([0.3255814, 0.3255814, 0.       ])
  parallel: 
    kpt: None
    domain: 1
    band: 1
    order: 'kdb'
    stridebands: False
    augment_grids: False
    sl_auto: False
    sl_default: None
    sl_diagonalize: None
    sl_inverse_cholesky: None
    sl_lcao: None
    sl_lrtddft: None
    use_elpa: False
    elpasolver: '2stage'
    buffer_size: None
    gpu: False
  symmetry: 
    point_group: False
    time_reversal: False
  xc: 
    name: 'LDA'

#                        
#                        
#                        
#                        
#              Br        
#                        
#                        
#        V Br            
#                        
#                        
#                        
#                        
#                        

atoms: [  # symbols, positions [Ang] and initial magnetic moments
  [  V, [   0.000000,    0.000000,    7.448555], [ 2.642,  0.000,  0.000]], # 0
  [ Br, [   1.920224,    1.108642,    8.897111], [-0.025,  0.000,  0.000]], # 1
  [ Br, [   0.000000,    2.217284,    6.000000], [-0.025,  0.000,  0.000]]] # 2

cell: [  # Ang
#     x            y            z
  [   3.840448,    0.000000,    0.000000],
  [  -1.920224,    3.325925,    0.000000],
  [   0.000000,    0.000000,   14.897111]]

periodic: [True      , True      , False     ]
lengths:  [  3.840448,   3.840448,  14.897111]  # Ang
angles:   [ 90.000000,  90.000000, 120.000000]

symmetry:
  number of symmetries: 1
  rotations: [
    [[ 1,  0,  0], [ 0,  1,  0], [ 0,  0,  1]]]

bz sampling:
  number of bz points: 256
  number of ibz points: 256
  monkhorst-pack size: [16, 16, 1]
  monkhorst-pack shift: [0.03125, 0.03125, 0.0]
  points and weights: [
    [[ -0.43750000,  -0.43750000,   0.00000000], 0.00390625],  # 0
    [[ -0.43750000,  -0.37500000,   0.00000000], 0.00390625],  # 1
    [[ -0.43750000,  -0.31250000,   0.00000000], 0.00390625],  # 2
    [[ -0.43750000,  -0.25000000,   0.00000000], 0.00390625],  # 3
    [[ -0.43750000,  -0.18750000,   0.00000000], 0.00390625],  # 4
    [[ -0.43750000,  -0.12500000,   0.00000000], 0.00390625],  # 5
    [[ -0.43750000,  -0.06250000,   0.00000000], 0.00390625],  # 6
    [[ -0.43750000,   0.00000000,   0.00000000], 0.00390625],  # 7
    [[ -0.43750000,   0.06250000,   0.00000000], 0.00390625],  # 8
    [[ -0.43750000,   0.12500000,   0.00000000], 0.00390625],  # 9
    # ...
    [[  0.50000000,   0.50000000,   0.00000000], 0.00390625]]  # 255

plane wave coefficients: 9805
cutoff: 800.0 eV

spin-components: 4  # (non-collinear spins)
bands: 42
valence electrons: 27.0
spin-degeneracy: 1
dtype: complex128

memory:
    wave functions: 3_359_440_896  # bytes  (279_953_408 per core)

parallelization:
    kpt:    12
    domain: 1
    band:   1

density:
  components: 4
  grid points: [27 27 98]
  charge: 0.0  # |e|

potential:
  grid points: [27 27 98]

species:
  V:
    name: Vanadium
    id: 7939ce69e6bb5930668dfcf9bb1979c3
    Z: 23.0
    valence: 13
    core: 10
    charge: 0.0
    file: /zhome/86/d/1666/PAW/gpaw-setups-0.9.20000/V.LDA.gz
    compensation charges: {type: gauss,
                           rc: 0.37,
                           lmax: 2}
    cutoffs: {filter: 2.14,
              core: 0.96}
    valence states:
      #              energy  rcut
      - 3s(2.00)   -69.819   1.254
      - 4s(2.00)    -4.846   1.254
      - 3p(6.00)   -43.961   1.281
      - 4p(0.00)    -1.526   1.281
      - 3d(3.00)    -5.381   1.169
      -  d          21.830   1.169
  
    # Using partial waves for V as LCAO basis

  Br:
    name: Bromine
    id: 10a25bbcb3273ec7d8d7f6fc01d2618d
    Z: 35.0
    valence: 7
    core: 28
    charge: 0.0
    file: /zhome/86/d/1666/PAW/gpaw-setups-0.9.20000/Br.LDA.gz
    compensation charges: {type: gauss,
                           rc: 0.35,
                           lmax: 2}
    cutoffs: {filter: 1.98,
              core: 2.38}
    valence states:
      #              energy  rcut
      - 4s(2.00)   -20.306   1.111
      - 4p(5.00)    -8.003   1.111
      -  s           6.906   1.111
      -  p          19.208   1.111
      -  d           0.000   1.111
  
    # Using partial waves for Br as LCAO basis

Reference energy: -167392.690611  # eV

eigensolver:
  name: 'Davidson'
  niter: 2
  converge_bands: 'occupied'
Density mixing:
  Method: sum
  Backend: pulay
  Linear mixing parameter: 0.05
  old densities: 5
  Damping of long wavelength oscillations: 100
occupation numbers:
  Fermi-Dirac:
    width: 0.1000  # eV
  

poisson solver:
  ecut: 6400.0  # eV

xc functional:
  name: None

convergence criteria:
- Maximum [total energy] change in last 3 cyles: 0.0005 eV / valence electron
- Maximum integral of absolute [dens]ity change: 0.0001 electrons / valence electron
- Maximum integral of absolute [eigenst]ate change: 4e-08 eV^2 / valence electron
maximum number of iterations: 333

#      iter     time        total  log10-change:
#                          energy   eigst   dens
# iter:   1 11:57:01   -14.903077                  +2.6,+0.0,+0.0
# iter:   2 11:57:56   -15.645143   +0.21  -1.41   +2.5,+0.0,-0.0
# iter:   3 11:58:52   -15.629462   -0.65  -1.44   +2.6,+0.0,-0.0
# iter:   4 11:59:48   -15.646970   -1.21  -1.54   +2.6,+0.0,-0.0
# iter:   5 12:00:44   -15.721995   -1.43  -1.66   +2.6,+0.0,-0.0
# iter:   6 12:01:39   -15.683304   -2.22  -2.02   +2.6,-0.0,-0.0
# iter:   7 12:02:36   -15.678967   -2.37  -2.21   +2.6,-0.0,+0.0
# iter:   8 12:03:31   -15.676230c  -3.10  -2.41   +2.6,-0.0,+0.0
# iter:   9 12:04:27   -15.677963c  -3.15  -2.81   +2.6,-0.0,+0.0
# iter:  10 12:05:23   -15.676383c  -3.42  -2.66   +2.6,-0.0,+0.0
# iter:  11 12:06:18   -15.676326c  -4.08  -3.17   +2.6,-0.0,-0.0
# iter:  12 12:07:14   -15.676307c  -4.35  -3.42   +2.6,-0.0,-0.0
# iter:  13 12:08:11   -15.676287c  -4.51  -3.49   +2.6,-0.0,-0.0
# iter:  14 12:09:05   -15.676275c  -4.79  -3.53   +2.6,-0.0,-0.0
# iter:  15 12:10:01   -15.676277c  -5.15  -4.22c  +2.6,-0.0,+0.0
# iter:  16 12:10:56   -15.676279c  -5.39  -4.26c  +2.6,-0.0,+0.0
# iter:  17 12:11:51   -15.676279c  -5.64  -4.18c  +2.6,-0.0,+0.0
# iter:  18 12:12:46   -15.676278c  -5.83  -4.45c  +2.6,-0.0,+0.0
# iter:  19 12:13:41   -15.676279c  -6.08  -4.44c  +2.6,-0.0,-0.0
# iter:  20 12:14:36   -15.676279c  -6.32  -4.71c  +2.6,-0.0,-0.0
# iter:  21 12:15:31   -15.676279c  -6.49  -4.77c  +2.6,-0.0,-0.0
# iter:  22 12:16:25   -15.676279c  -6.75  -4.93c  +2.6,-0.0,-0.0
# iter:  23 12:17:20   -15.676278c  -6.95  -5.08c  +2.6,-0.0,-0.0
# iter:  24 12:18:14   -15.676278c  -7.19  -5.33c  +2.6,-0.0,-0.0
# iter:  25 12:19:09   -15.676278c  -7.39  -5.31c  +2.6,-0.0,-0.0
# iter:  26 12:20:04   -15.676278c  -7.59c -5.36c  +2.6,-0.0,-0.0
scf_steps: 26
energies:  # eV
  coulomb:          -5.314120
  zero:              0.051905
  xc:              -16.388024
  external:          0.000000
  kinetic:           5.977318
  spinorbit:         0.000000
  entropy:          -0.006713
  total:           -15.679634
  extrapolated:    -15.676278

dipole moment: [-4.642569, -8.041091, -7.548378]  # |e|*Ang

total magnetic moment: [2.585850, -0.000080, -0.000000]

local magnetic moments: [
  [ 2.525593, -0.000004,  0.000000],  # V  0
  [ 0.000348,  0.000824, -0.000000],  # Br 1
  [ 0.000466,  0.000763, -0.000000]]  # Br 2


Fermi level: -0.650 eV

kpt = [-0.438, -0.438, 0.000], weight = 0.004:
  Band      eig [eV]   occ [0-1]
     0       -65.401       1.000
   ...
    19        -5.221       1.000
    20        -5.117       1.000
    21        -4.983       1.000
    22        -4.874       1.000
    23        -4.752       1.000
    24        -1.447       1.000
    25        -1.269       0.998
    26        -1.205       0.996
    27        -0.010       0.002
    28         0.068       0.001
    29         0.807       0.000
    30         0.898       0.000
    31         0.968       0.000
    32         1.473       0.000
    33         1.501       0.000
    34         3.795       0.000
   ...
    41         6.210       0.000

kpt = [-0.438, -0.375, 0.000], weight = 0.004:
  Band      eig [eV]   occ [0-1]
     0       -65.401       1.000
   ...
    19        -5.223       1.000
    20        -5.077       1.000
    21        -5.015       1.000
    22        -4.831       1.000
    23        -4.625       1.000
    24        -1.462       1.000
    25        -1.341       0.999
    26        -1.225       0.997
    27        -0.058       0.003
    28         0.087       0.001
    29         0.818       0.000
    30         0.871       0.000
    31         0.962       0.000
    32         1.462       0.000
    33         1.528       0.000
    34         3.497       0.000
   ...
    41         5.786       0.000

kpt = [-0.438, -0.312, 0.000], weight = 0.004:
  Band      eig [eV]   occ [0-1]
     0       -65.402       1.000
   ...
    19        -5.139       1.000
    20        -5.025       1.000
    21        -4.900       1.000
    22        -4.742       1.000
    23        -4.493       1.000
    24        -1.537       1.000
    25        -1.398       0.999
    26        -1.227       0.997
    27        -0.068       0.003
    28         0.098       0.001
    29         0.724       0.000
    30         0.889       0.000
    31         0.972       0.000
    32         1.431       0.000
    33         1.537       0.000
    34         3.237       0.000
   ...
    41         5.508       0.000
(only showing first 3 out of 256 k-points)

Gap: 0.900 eV
Transition (v -> c):
  (s=0, k=247, n=26, [0.50, 0.00, 0.00]) -> (s=0, k=36, n=27, [-0.31, -0.19, 0.00])
# Writing to Band_Conv/gsq-58.gpw (mode='')

---

timing:  # [seconds]
  Total: 1471.738  # ━━━━━━━━━━━━━━━━━━━━━━━━━━━━━━━━━━━━━━━━━━━━━━━━━━━━━━━━
  Init:    34.283  # ━╸
  SCF:   1435.679  # ━━━━━━━━━━━━━━━━━━━━━━━━━━━━━━━━━━━━━━━━━━━━━━━━━━━━━━╸

Max RSS: 2519.125  # MiB
