#  __  _  _
# | _ |_)|_||  |
# |__||  | ||/\| - 24.1.0

User:   s194113@n-62-28-28
Date:   Thu May  2 06:45:47 2024
Arch:   x86_64
Pid:    16738
CWD:    /work3/s194113/10302/10302_NM/VBr2
Python: 3.8.5
gpaw:   /zhome/87/8/147075/venv-name/gpaw/gpaw (10808453a8)
_gpaw:  /zhome/87/8/147075/venv-name/gpaw/
        _gpaw.cpython-38-x86_64-linux-gnu.so (10808453a8)
ase:    /zhome/87/8/147075/venv-name/ase/ase (version 3.23.0b1-c36115a2db)
numpy:  /zhome/87/8/147075/venv-name/lib/python3.8/site-packages/numpy (version 1.24.4)
scipy:  /zhome/87/8/147075/venv-name/lib/python3.8/site-packages/scipy (version 1.10.1)
libxc:  4.3.4
units:  Angstrom and eV
cores: 12
OpenMP: False
OMP_NUM_THREADS: 1

---
input parameters:
  kpts: 
    density: 8.0
    gamma: True
  magmoms: [[2.64162512, 0, 0], [-0.02514574, 0, 0], [-0.02514574, 0, 0]]
  mixer: 
    backend: 'pulay'
    beta: 0.05
    method: 'sum'
    nmaxold: 5
    weight: 100
  mode: 
    name: 'pw'
    ecut: 800.0
    qspiral: array([0.42857143, 0.14285714, 0.        ])
  parallel: 
    kpt: None
    domain: 1
    band: 1
    order: 'kdb'
    stridebands: False
    augment_grids: False
    sl_auto: False
    sl_default: None
    sl_diagonalize: None
    sl_inverse_cholesky: None
    sl_lcao: None
    sl_lrtddft: None
    use_elpa: False
    elpasolver: '2stage'
    buffer_size: None
    gpu: False
  symmetry: 
    point_group: False
    time_reversal: False
  xc: 
    name: 'LDA'

#                        
#                        
#                        
#                        
#              Br        
#                        
#                        
#        V Br            
#                        
#                        
#                        
#                        
#                        

atoms: [  # symbols, positions [Ang] and initial magnetic moments
  [  V, [   0.000000,    0.000000,    7.448555], [ 2.642,  0.000,  0.000]], # 0
  [ Br, [   1.920224,    1.108642,    8.897111], [-0.025,  0.000,  0.000]], # 1
  [ Br, [   0.000000,    2.217284,    6.000000], [-0.025,  0.000,  0.000]]] # 2

cell: [  # Ang
#     x            y            z
  [   3.840448,    0.000000,    0.000000],
  [  -1.920224,    3.325925,    0.000000],
  [   0.000000,    0.000000,   14.897111]]

periodic: [True      , True      , False     ]
lengths:  [  3.840448,   3.840448,  14.897111]  # Ang
angles:   [ 90.000000,  90.000000, 120.000000]

symmetry:
  number of symmetries: 1
  rotations: [
    [[ 1,  0,  0], [ 0,  1,  0], [ 0,  0,  1]]]

bz sampling:
  number of bz points: 256
  number of ibz points: 256
  monkhorst-pack size: [16, 16, 1]
  monkhorst-pack shift: [0.03125, 0.03125, 0.0]
  points and weights: [
    [[ -0.43750000,  -0.43750000,   0.00000000], 0.00390625],  # 0
    [[ -0.43750000,  -0.37500000,   0.00000000], 0.00390625],  # 1
    [[ -0.43750000,  -0.31250000,   0.00000000], 0.00390625],  # 2
    [[ -0.43750000,  -0.25000000,   0.00000000], 0.00390625],  # 3
    [[ -0.43750000,  -0.18750000,   0.00000000], 0.00390625],  # 4
    [[ -0.43750000,  -0.12500000,   0.00000000], 0.00390625],  # 5
    [[ -0.43750000,  -0.06250000,   0.00000000], 0.00390625],  # 6
    [[ -0.43750000,   0.00000000,   0.00000000], 0.00390625],  # 7
    [[ -0.43750000,   0.06250000,   0.00000000], 0.00390625],  # 8
    [[ -0.43750000,   0.12500000,   0.00000000], 0.00390625],  # 9
    # ...
    [[  0.50000000,   0.50000000,   0.00000000], 0.00390625]]  # 255

plane wave coefficients: 9805
cutoff: 800.0 eV

spin-components: 4  # (non-collinear spins)
bands: 42
valence electrons: 27.0
spin-degeneracy: 1
dtype: complex128

memory:
    wave functions: 3_359_440_896  # bytes  (279_953_408 per core)

parallelization:
    kpt:    12
    domain: 1
    band:   1

density:
  components: 4
  grid points: [27 27 98]
  charge: 0.0  # |e|

potential:
  grid points: [27 27 98]

species:
  V:
    name: Vanadium
    id: 7939ce69e6bb5930668dfcf9bb1979c3
    Z: 23.0
    valence: 13
    core: 10
    charge: 0.0
    file: /zhome/86/d/1666/PAW/gpaw-setups-0.9.20000/V.LDA.gz
    compensation charges: {type: gauss,
                           rc: 0.37,
                           lmax: 2}
    cutoffs: {filter: 2.14,
              core: 0.96}
    valence states:
      #              energy  rcut
      - 3s(2.00)   -69.819   1.254
      - 4s(2.00)    -4.846   1.254
      - 3p(6.00)   -43.961   1.281
      - 4p(0.00)    -1.526   1.281
      - 3d(3.00)    -5.381   1.169
      -  d          21.830   1.169
  
    # Using partial waves for V as LCAO basis

  Br:
    name: Bromine
    id: 10a25bbcb3273ec7d8d7f6fc01d2618d
    Z: 35.0
    valence: 7
    core: 28
    charge: 0.0
    file: /zhome/86/d/1666/PAW/gpaw-setups-0.9.20000/Br.LDA.gz
    compensation charges: {type: gauss,
                           rc: 0.35,
                           lmax: 2}
    cutoffs: {filter: 1.98,
              core: 2.38}
    valence states:
      #              energy  rcut
      - 4s(2.00)   -20.306   1.111
      - 4p(5.00)    -8.003   1.111
      -  s           6.906   1.111
      -  p          19.208   1.111
      -  d           0.000   1.111
  
    # Using partial waves for Br as LCAO basis

Reference energy: -167392.690611  # eV

eigensolver:
  name: 'Davidson'
  niter: 2
  converge_bands: 'occupied'
Density mixing:
  Method: sum
  Backend: pulay
  Linear mixing parameter: 0.05
  old densities: 5
  Damping of long wavelength oscillations: 100
occupation numbers:
  Fermi-Dirac:
    width: 0.1000  # eV
  

poisson solver:
  ecut: 6400.0  # eV

xc functional:
  name: None

convergence criteria:
- Maximum [total energy] change in last 3 cyles: 0.0005 eV / valence electron
- Maximum integral of absolute [dens]ity change: 0.0001 electrons / valence electron
- Maximum integral of absolute [eigenst]ate change: 4e-08 eV^2 / valence electron
maximum number of iterations: 333

#      iter     time        total  log10-change:
#                          energy   eigst   dens
# iter:   1 06:47:15   -15.071378                  +2.6,+0.0,+0.0
# iter:   2 06:48:11   -15.664784   +0.13  -1.41   +2.6,+0.0,-0.0
# iter:   3 06:49:07   -15.624189   -0.73  -1.44   +2.6,+0.0,-0.0
# iter:   4 06:50:03   -15.643463   -1.25  -1.54   +2.6,+0.0,+0.0
# iter:   5 06:50:58   -15.705925   -1.53  -1.66   +2.6,-0.0,-0.0
# iter:   6 06:51:54   -15.678818   -2.29  -2.07   +2.6,-0.0,-0.0
# iter:   7 06:52:50   -15.675054   -2.39  -2.22   +2.6,-0.0,-0.0
# iter:   8 06:53:45   -15.672060c  -3.16  -2.44   +2.6,-0.0,-0.0
# iter:   9 06:54:41   -15.674170c  -3.19  -2.83   +2.6,-0.0,-0.0
# iter:  10 06:55:37   -15.672311c  -3.50  -2.61   +2.6,-0.0,-0.0
# iter:  11 06:56:33   -15.672102c  -4.04  -3.20   +2.6,-0.0,-0.0
# iter:  12 06:57:28   -15.672104c  -4.46  -3.60   +2.6,-0.0,-0.0
# iter:  13 06:58:23   -15.672116c  -4.75  -3.66   +2.6,-0.0,-0.0
# iter:  14 06:59:18   -15.672094c  -4.80  -3.77   +2.6,-0.0,-0.0
# iter:  15 07:00:14   -15.672091c  -5.21  -3.78   +2.6,-0.0,-0.0
# iter:  16 07:01:09   -15.672092c  -5.47  -3.91   +2.6,-0.0,-0.0
# iter:  17 07:02:04   -15.672091c  -5.72  -3.97   +2.6,-0.0,-0.0
# iter:  18 07:02:58   -15.672091c  -5.97  -4.05c  +2.6,-0.0,-0.0
# iter:  19 07:03:53   -15.672093c  -6.12  -4.17c  +2.6,-0.0,-0.0
# iter:  20 07:04:48   -15.672096c  -6.32  -4.20c  +2.6,-0.0,-0.0
# iter:  21 07:05:43   -15.672098c  -6.56  -4.20c  +2.6,-0.0,-0.0
# iter:  22 07:06:38   -15.672100c  -6.77  -4.64c  +2.6,-0.0,-0.0
# iter:  23 07:07:33   -15.672101c  -7.05  -4.90c  +2.6,-0.0,-0.0
# iter:  24 07:08:30   -15.672101c  -7.28  -4.97c  +2.6,-0.0,-0.0
# iter:  25 07:09:25   -15.672101c  -7.51c -5.10c  +2.6,-0.0,-0.0
scf_steps: 25
energies:  # eV
  coulomb:          -5.400234
  zero:              0.051558
  xc:              -16.413773
  external:          0.000000
  kinetic:           6.093919
  spinorbit:         0.000000
  entropy:          -0.007142
  total:           -15.675672
  extrapolated:    -15.672101

dipole moment: [-4.553415, -8.263979, -7.946686]  # |e|*Ang

total magnetic moment: [2.638545, -0.000161, -0.000000]

local magnetic moments: [
  [ 2.533250, -0.000006, -0.000000],  # V  0
  [ 0.006809,  0.000032, -0.000000],  # Br 1
  [-0.006122,  0.002984, -0.000000]]  # Br 2


Fermi level: -0.657 eV

kpt = [-0.438, -0.438, 0.000], weight = 0.004:
  Band      eig [eV]   occ [0-1]
     0       -65.395       1.000
   ...
    19        -5.161       1.000
    20        -5.124       1.000
    21        -4.993       1.000
    22        -4.857       1.000
    23        -4.711       1.000
    24        -1.487       1.000
    25        -1.284       0.998
    26        -1.191       0.995
    27        -0.018       0.002
    28         0.113       0.000
    29         0.764       0.000
    30         0.830       0.000
    31         1.050       0.000
    32         1.463       0.000
    33         1.579       0.000
    34         3.609       0.000
   ...
    41         6.062       0.000

kpt = [-0.438, -0.375, 0.000], weight = 0.004:
  Band      eig [eV]   occ [0-1]
     0       -65.395       1.000
   ...
    19        -5.164       1.000
    20        -5.134       1.000
    21        -4.949       1.000
    22        -4.716       1.000
    23        -4.614       1.000
    24        -1.509       1.000
    25        -1.320       0.999
    26        -1.212       0.996
    27        -0.083       0.003
    28         0.134       0.000
    29         0.788       0.000
    30         0.833       0.000
    31         1.033       0.000
    32         1.410       0.000
    33         1.566       0.000
    34         3.367       0.000
   ...
    41         5.883       0.000

kpt = [-0.438, -0.312, 0.000], weight = 0.004:
  Band      eig [eV]   occ [0-1]
     0       -65.395       1.000
   ...
    19        -5.189       1.000
    20        -5.055       1.000
    21        -4.768       1.000
    22        -4.562       1.000
    23        -4.519       1.000
    24        -1.548       1.000
    25        -1.310       0.999
    26        -1.255       0.997
    27        -0.145       0.006
    28         0.157       0.000
    29         0.752       0.000
    30         0.884       0.000
    31         0.965       0.000
    32         1.318       0.000
    33         1.551       0.000
    34         3.195       0.000
   ...
    41         5.912       0.000
(only showing first 3 out of 256 k-points)

Gap: 0.843 eV
Transition (v -> c):
  (s=0, k=247, n=26, [0.50, 0.00, 0.00]) -> (s=0, k=123, n=27, [0.00, 0.25, 0.00])
# Writing to Band_Conv/gsq-45.gpw (mode='')

---

timing:  # [seconds]
  Total: 1418.994  # ━━━━━━━━━━━━━━━━━━━━━━━━━━━━━━━━━━━━━━━━━━━━━━━━━━━━━━━━
  Init:    34.170  # ━╸
  SCF:   1383.201  # ━━━━━━━━━━━━━━━━━━━━━━━━━━━━━━━━━━━━━━━━━━━━━━━━━━━━━━╸

Max RSS: 2216.414  # MiB
