#  __  _  _
# | _ |_)|_||  |
# |__||  | ||/\| - 24.1.0

User:   s194113@n-62-28-28
Date:   Thu May  2 00:33:24 2024
Arch:   x86_64
Pid:    16738
CWD:    /work3/s194113/10302/10302_NM/VBr2
Python: 3.8.5
gpaw:   /zhome/87/8/147075/venv-name/gpaw/gpaw (10808453a8)
_gpaw:  /zhome/87/8/147075/venv-name/gpaw/
        _gpaw.cpython-38-x86_64-linux-gnu.so (10808453a8)
ase:    /zhome/87/8/147075/venv-name/ase/ase (version 3.23.0b1-c36115a2db)
numpy:  /zhome/87/8/147075/venv-name/lib/python3.8/site-packages/numpy (version 1.24.4)
scipy:  /zhome/87/8/147075/venv-name/lib/python3.8/site-packages/scipy (version 1.10.1)
libxc:  4.3.4
units:  Angstrom and eV
cores: 12
OpenMP: False
OMP_NUM_THREADS: 1

---
input parameters:
  kpts: 
    density: 8.0
    gamma: True
  magmoms: [[2.64162512, 0, 0], [-0.02514574, 0, 0], [-0.02514574, 0, 0]]
  mixer: 
    backend: 'pulay'
    beta: 0.05
    method: 'sum'
    nmaxold: 5
    weight: 100
  mode: 
    name: 'pw'
    ecut: 800.0
    qspiral: array([0.40277778, 0.        , 0.        ])
  parallel: 
    kpt: None
    domain: 1
    band: 1
    order: 'kdb'
    stridebands: False
    augment_grids: False
    sl_auto: False
    sl_default: None
    sl_diagonalize: None
    sl_inverse_cholesky: None
    sl_lcao: None
    sl_lrtddft: None
    use_elpa: False
    elpasolver: '2stage'
    buffer_size: None
    gpu: False
  symmetry: 
    point_group: False
    time_reversal: False
  xc: 
    name: 'LDA'

#                        
#                        
#                        
#                        
#              Br        
#                        
#                        
#        V Br            
#                        
#                        
#                        
#                        
#                        

atoms: [  # symbols, positions [Ang] and initial magnetic moments
  [  V, [   0.000000,    0.000000,    7.448555], [ 2.642,  0.000,  0.000]], # 0
  [ Br, [   1.920224,    1.108642,    8.897111], [-0.025,  0.000,  0.000]], # 1
  [ Br, [   0.000000,    2.217284,    6.000000], [-0.025,  0.000,  0.000]]] # 2

cell: [  # Ang
#     x            y            z
  [   3.840448,    0.000000,    0.000000],
  [  -1.920224,    3.325925,    0.000000],
  [   0.000000,    0.000000,   14.897111]]

periodic: [True      , True      , False     ]
lengths:  [  3.840448,   3.840448,  14.897111]  # Ang
angles:   [ 90.000000,  90.000000, 120.000000]

symmetry:
  number of symmetries: 1
  rotations: [
    [[ 1,  0,  0], [ 0,  1,  0], [ 0,  0,  1]]]

bz sampling:
  number of bz points: 256
  number of ibz points: 256
  monkhorst-pack size: [16, 16, 1]
  monkhorst-pack shift: [0.03125, 0.03125, 0.0]
  points and weights: [
    [[ -0.43750000,  -0.43750000,   0.00000000], 0.00390625],  # 0
    [[ -0.43750000,  -0.37500000,   0.00000000], 0.00390625],  # 1
    [[ -0.43750000,  -0.31250000,   0.00000000], 0.00390625],  # 2
    [[ -0.43750000,  -0.25000000,   0.00000000], 0.00390625],  # 3
    [[ -0.43750000,  -0.18750000,   0.00000000], 0.00390625],  # 4
    [[ -0.43750000,  -0.12500000,   0.00000000], 0.00390625],  # 5
    [[ -0.43750000,  -0.06250000,   0.00000000], 0.00390625],  # 6
    [[ -0.43750000,   0.00000000,   0.00000000], 0.00390625],  # 7
    [[ -0.43750000,   0.06250000,   0.00000000], 0.00390625],  # 8
    [[ -0.43750000,   0.12500000,   0.00000000], 0.00390625],  # 9
    # ...
    [[  0.50000000,   0.50000000,   0.00000000], 0.00390625]]  # 255

plane wave coefficients: 9805
cutoff: 800.0 eV

spin-components: 4  # (non-collinear spins)
bands: 42
valence electrons: 27.0
spin-degeneracy: 1
dtype: complex128

memory:
    wave functions: 3_359_440_896  # bytes  (279_953_408 per core)

parallelization:
    kpt:    12
    domain: 1
    band:   1

density:
  components: 4
  grid points: [27 27 98]
  charge: 0.0  # |e|

potential:
  grid points: [27 27 98]

species:
  V:
    name: Vanadium
    id: 7939ce69e6bb5930668dfcf9bb1979c3
    Z: 23.0
    valence: 13
    core: 10
    charge: 0.0
    file: /zhome/86/d/1666/PAW/gpaw-setups-0.9.20000/V.LDA.gz
    compensation charges: {type: gauss,
                           rc: 0.37,
                           lmax: 2}
    cutoffs: {filter: 2.14,
              core: 0.96}
    valence states:
      #              energy  rcut
      - 3s(2.00)   -69.819   1.254
      - 4s(2.00)    -4.846   1.254
      - 3p(6.00)   -43.961   1.281
      - 4p(0.00)    -1.526   1.281
      - 3d(3.00)    -5.381   1.169
      -  d          21.830   1.169
  
    # Using partial waves for V as LCAO basis

  Br:
    name: Bromine
    id: 10a25bbcb3273ec7d8d7f6fc01d2618d
    Z: 35.0
    valence: 7
    core: 28
    charge: 0.0
    file: /zhome/86/d/1666/PAW/gpaw-setups-0.9.20000/Br.LDA.gz
    compensation charges: {type: gauss,
                           rc: 0.35,
                           lmax: 2}
    cutoffs: {filter: 1.98,
              core: 2.38}
    valence states:
      #              energy  rcut
      - 4s(2.00)   -20.306   1.111
      - 4p(5.00)    -8.003   1.111
      -  s           6.906   1.111
      -  p          19.208   1.111
      -  d           0.000   1.111
  
    # Using partial waves for Br as LCAO basis

Reference energy: -167392.690611  # eV

eigensolver:
  name: 'Davidson'
  niter: 2
  converge_bands: 'occupied'
Density mixing:
  Method: sum
  Backend: pulay
  Linear mixing parameter: 0.05
  old densities: 5
  Damping of long wavelength oscillations: 100
occupation numbers:
  Fermi-Dirac:
    width: 0.1000  # eV
  

poisson solver:
  ecut: 6400.0  # eV

xc functional:
  name: None

convergence criteria:
- Maximum [total energy] change in last 3 cyles: 0.0005 eV / valence electron
- Maximum integral of absolute [dens]ity change: 0.0001 electrons / valence electron
- Maximum integral of absolute [eigenst]ate change: 4e-08 eV^2 / valence electron
maximum number of iterations: 333

#      iter     time        total  log10-change:
#                          energy   eigst   dens
# iter:   1 00:34:52   -15.365263                  +2.6,+0.0,+0.0
# iter:   2 00:35:47   -15.700815   -0.05  -1.40   +2.6,+0.0,-0.0
# iter:   3 00:36:43   -15.619465   -0.87  -1.44   +2.6,+0.0,-0.0
# iter:   4 00:37:37   -15.640732   -1.35  -1.55   +2.7,-0.0,-0.0
# iter:   5 00:38:32   -15.692395   -1.70  -1.67   +2.7,-0.0,+0.0
# iter:   6 00:39:28   -15.675331   -2.43  -2.11   +2.7,-0.0,-0.0
# iter:   7 00:40:23   -15.671302   -2.40  -2.21   +2.7,-0.0,-0.0
# iter:   8 00:41:18   -15.667886c  -3.25  -2.48   +2.7,-0.0,+0.0
# iter:   9 00:42:13   -15.668594c  -3.47  -2.85   +2.7,-0.0,+0.0
# iter:  10 00:43:08   -15.668224c  -3.86  -2.76   +2.7,-0.0,-0.0
# iter:  11 00:44:03   -15.667903c  -4.17  -3.14   +2.7,-0.0,+0.0
# iter:  12 00:44:57   -15.667902c  -4.65  -3.68   +2.7,-0.0,-0.0
# iter:  13 00:45:52   -15.667895c  -4.88  -3.71   +2.7,-0.0,-0.0
# iter:  14 00:46:47   -15.667884c  -4.99  -3.72   +2.7,-0.0,-0.0
# iter:  15 00:47:41   -15.667893c  -5.44  -4.06c  +2.7,-0.0,-0.0
# iter:  16 00:48:36   -15.667897c  -5.68  -4.00c  +2.7,-0.0,-0.0
# iter:  17 00:49:31   -15.667896c  -5.82  -4.13c  +2.7,-0.0,+0.0
# iter:  18 00:50:26   -15.667896c  -6.16  -4.26c  +2.7,-0.0,+0.0
# iter:  19 00:51:20   -15.667897c  -6.34  -4.27c  +2.7,-0.0,+0.0
# iter:  20 00:52:15   -15.667897c  -6.66  -4.36c  +2.7,-0.0,+0.0
# iter:  21 00:53:10   -15.667895c  -6.50  -4.40c  +2.7,-0.0,+0.0
# iter:  22 00:54:06   -15.667895c  -7.07  -4.70c  +2.7,-0.0,+0.0
# iter:  23 00:55:00   -15.667896c  -7.35  -4.78c  +2.7,-0.0,+0.0
# iter:  24 00:55:55   -15.667897c  -7.45c -4.81c  +2.7,-0.0,+0.0
scf_steps: 24
energies:  # eV
  coulomb:          -5.498453
  zero:              0.051777
  xc:              -16.449100
  external:          0.000000
  kinetic:           6.231567
  spinorbit:         0.000000
  entropy:          -0.007377
  total:           -15.671585
  extrapolated:    -15.667897

dipole moment: [-4.654589, -8.556898, -8.607033]  # |e|*Ang

total magnetic moment: [2.735469, -0.001039, 0.000000]

local magnetic moments: [
  [ 2.545525, -0.000043, -0.000000],  # V  0
  [ 0.004290,  0.012131,  0.000000],  # Br 1
  [-0.010474,  0.007476,  0.000000]]  # Br 2


Fermi level: -0.648 eV

kpt = [-0.438, -0.438, 0.000], weight = 0.004:
  Band      eig [eV]   occ [0-1]
     0       -65.383       1.000
   ...
    19        -5.197       1.000
    20        -5.022       1.000
    21        -4.922       1.000
    22        -4.790       1.000
    23        -4.610       1.000
    24        -1.584       1.000
    25        -1.271       0.998
    26        -1.168       0.995
    27        -0.005       0.002
    28         0.145       0.000
    29         0.621       0.000
    30         0.882       0.000
    31         1.102       0.000
    32         1.492       0.000
    33         1.614       0.000
    34         3.266       0.000
   ...
    41         6.008       0.000

kpt = [-0.438, -0.375, 0.000], weight = 0.004:
  Band      eig [eV]   occ [0-1]
     0       -65.383       1.000
   ...
    19        -5.135       1.000
    20        -4.969       1.000
    21        -4.871       1.000
    22        -4.744       1.000
    23        -4.523       1.000
    24        -1.585       1.000
    25        -1.288       0.998
    26        -1.187       0.995
    27        -0.059       0.003
    28         0.163       0.000
    29         0.694       0.000
    30         0.902       0.000
    31         1.083       0.000
    32         1.429       0.000
    33         1.582       0.000
    34         3.151       0.000
   ...
    41         6.180       0.000

kpt = [-0.438, -0.312, 0.000], weight = 0.004:
  Band      eig [eV]   occ [0-1]
     0       -65.383       1.000
   ...
    19        -5.148       1.000
    20        -5.083       1.000
    21        -4.774       1.000
    22        -4.695       1.000
    23        -4.426       1.000
    24        -1.523       1.000
    25        -1.290       0.998
    26        -1.229       0.997
    27        -0.130       0.006
    28         0.165       0.000
    29         0.770       0.000
    30         0.929       0.000
    31         0.977       0.000
    32         1.324       0.000
    33         1.562       0.000
    34         3.301       0.000
   ...
    41         6.114       0.000
(only showing first 3 out of 256 k-points)

Gap: 0.830 eV
Transition (v -> c):
  (s=0, k=247, n=26, [0.50, 0.00, 0.00]) -> (s=0, k=115, n=27, [0.00, -0.25, 0.00])
# Writing to Band_Conv/gsq-29.gpw (mode='')

---

timing:  # [seconds]
  Total: 1352.478  # ━━━━━━━━━━━━━━━━━━━━━━━━━━━━━━━━━━━━━━━━━━━━━━━━━━━━━━━━
  Init:    34.165  # ━╸
  SCF:   1316.639  # ━━━━━━━━━━━━━━━━━━━━━━━━━━━━━━━━━━━━━━━━━━━━━━━━━━━━━━╸

Max RSS: 1844.852  # MiB
