#  __  _  _
# | _ |_)|_||  |
# |__||  | ||/\| - 24.1.0

User:   s194113@n-62-28-28
Date:   Thu May  2 19:59:27 2024
Arch:   x86_64
Pid:    16738
CWD:    /work3/s194113/10302/10302_NM/VBr2
Python: 3.8.5
gpaw:   /zhome/87/8/147075/venv-name/gpaw/gpaw (10808453a8)
_gpaw:  /zhome/87/8/147075/venv-name/gpaw/
        _gpaw.cpython-38-x86_64-linux-gnu.so (10808453a8)
ase:    /zhome/87/8/147075/venv-name/ase/ase (version 3.23.0b1-c36115a2db)
numpy:  /zhome/87/8/147075/venv-name/lib/python3.8/site-packages/numpy (version 1.24.4)
scipy:  /zhome/87/8/147075/venv-name/lib/python3.8/site-packages/scipy (version 1.10.1)
libxc:  4.3.4
units:  Angstrom and eV
cores: 12
OpenMP: False
OMP_NUM_THREADS: 1

---
input parameters:
  kpts: 
    density: 8.0
    gamma: True
  magmoms: [[2.64162512, 0, 0], [-0.02514574, 0, 0], [-0.02514574, 0, 0]]
  mixer: 
    backend: 'pulay'
    beta: 0.05
    method: 'sum'
    nmaxold: 5
    weight: 100
  mode: 
    name: 'pw'
    ecut: 800.0
    qspiral: array([0.1627907, 0.1627907, 0.       ])
  parallel: 
    kpt: None
    domain: 1
    band: 1
    order: 'kdb'
    stridebands: False
    augment_grids: False
    sl_auto: False
    sl_default: None
    sl_diagonalize: None
    sl_inverse_cholesky: None
    sl_lcao: None
    sl_lrtddft: None
    use_elpa: False
    elpasolver: '2stage'
    buffer_size: None
    gpu: False
  symmetry: 
    point_group: False
    time_reversal: False
  xc: 
    name: 'LDA'

#                        
#                        
#                        
#                        
#              Br        
#                        
#                        
#        V Br            
#                        
#                        
#                        
#                        
#                        

atoms: [  # symbols, positions [Ang] and initial magnetic moments
  [  V, [   0.000000,    0.000000,    7.448555], [ 2.642,  0.000,  0.000]], # 0
  [ Br, [   1.920224,    1.108642,    8.897111], [-0.025,  0.000,  0.000]], # 1
  [ Br, [   0.000000,    2.217284,    6.000000], [-0.025,  0.000,  0.000]]] # 2

cell: [  # Ang
#     x            y            z
  [   3.840448,    0.000000,    0.000000],
  [  -1.920224,    3.325925,    0.000000],
  [   0.000000,    0.000000,   14.897111]]

periodic: [True      , True      , False     ]
lengths:  [  3.840448,   3.840448,  14.897111]  # Ang
angles:   [ 90.000000,  90.000000, 120.000000]

symmetry:
  number of symmetries: 1
  rotations: [
    [[ 1,  0,  0], [ 0,  1,  0], [ 0,  0,  1]]]

bz sampling:
  number of bz points: 256
  number of ibz points: 256
  monkhorst-pack size: [16, 16, 1]
  monkhorst-pack shift: [0.03125, 0.03125, 0.0]
  points and weights: [
    [[ -0.43750000,  -0.43750000,   0.00000000], 0.00390625],  # 0
    [[ -0.43750000,  -0.37500000,   0.00000000], 0.00390625],  # 1
    [[ -0.43750000,  -0.31250000,   0.00000000], 0.00390625],  # 2
    [[ -0.43750000,  -0.25000000,   0.00000000], 0.00390625],  # 3
    [[ -0.43750000,  -0.18750000,   0.00000000], 0.00390625],  # 4
    [[ -0.43750000,  -0.12500000,   0.00000000], 0.00390625],  # 5
    [[ -0.43750000,  -0.06250000,   0.00000000], 0.00390625],  # 6
    [[ -0.43750000,   0.00000000,   0.00000000], 0.00390625],  # 7
    [[ -0.43750000,   0.06250000,   0.00000000], 0.00390625],  # 8
    [[ -0.43750000,   0.12500000,   0.00000000], 0.00390625],  # 9
    # ...
    [[  0.50000000,   0.50000000,   0.00000000], 0.00390625]]  # 255

plane wave coefficients: 9805
cutoff: 800.0 eV

spin-components: 4  # (non-collinear spins)
bands: 42
valence electrons: 27.0
spin-degeneracy: 1
dtype: complex128

memory:
    wave functions: 3_359_440_896  # bytes  (279_953_408 per core)

parallelization:
    kpt:    12
    domain: 1
    band:   1

density:
  components: 4
  grid points: [27 27 98]
  charge: 0.0  # |e|

potential:
  grid points: [27 27 98]

species:
  V:
    name: Vanadium
    id: 7939ce69e6bb5930668dfcf9bb1979c3
    Z: 23.0
    valence: 13
    core: 10
    charge: 0.0
    file: /zhome/86/d/1666/PAW/gpaw-setups-0.9.20000/V.LDA.gz
    compensation charges: {type: gauss,
                           rc: 0.37,
                           lmax: 2}
    cutoffs: {filter: 2.14,
              core: 0.96}
    valence states:
      #              energy  rcut
      - 3s(2.00)   -69.819   1.254
      - 4s(2.00)    -4.846   1.254
      - 3p(6.00)   -43.961   1.281
      - 4p(0.00)    -1.526   1.281
      - 3d(3.00)    -5.381   1.169
      -  d          21.830   1.169
  
    # Using partial waves for V as LCAO basis

  Br:
    name: Bromine
    id: 10a25bbcb3273ec7d8d7f6fc01d2618d
    Z: 35.0
    valence: 7
    core: 28
    charge: 0.0
    file: /zhome/86/d/1666/PAW/gpaw-setups-0.9.20000/Br.LDA.gz
    compensation charges: {type: gauss,
                           rc: 0.35,
                           lmax: 2}
    cutoffs: {filter: 1.98,
              core: 2.38}
    valence states:
      #              energy  rcut
      - 4s(2.00)   -20.306   1.111
      - 4p(5.00)    -8.003   1.111
      -  s           6.906   1.111
      -  p          19.208   1.111
      -  d           0.000   1.111
  
    # Using partial waves for Br as LCAO basis

Reference energy: -167392.690611  # eV

eigensolver:
  name: 'Davidson'
  niter: 2
  converge_bands: 'occupied'
Density mixing:
  Method: sum
  Backend: pulay
  Linear mixing parameter: 0.05
  old densities: 5
  Damping of long wavelength oscillations: 100
occupation numbers:
  Fermi-Dirac:
    width: 0.1000  # eV
  

poisson solver:
  ecut: 6400.0  # eV

xc functional:
  name: None

convergence criteria:
- Maximum [total energy] change in last 3 cyles: 0.0005 eV / valence electron
- Maximum integral of absolute [dens]ity change: 0.0001 electrons / valence electron
- Maximum integral of absolute [eigenst]ate change: 4e-08 eV^2 / valence electron
maximum number of iterations: 333

#      iter     time        total  log10-change:
#                          energy   eigst   dens
# iter:   1 20:00:54   -15.587785                  +2.6,+0.0,+0.0
# iter:   2 20:01:50   -15.727574   -0.27  -1.40   +2.6,+0.0,-0.0
# iter:   3 20:02:46   -15.613794   -0.98  -1.44   +2.7,+0.0,-0.0
# iter:   4 20:03:42   -15.638621   -1.39  -1.56   +2.8,-0.0,+0.0
# iter:   5 20:04:37   -15.680181   -1.85  -1.68   +2.8,-0.0,+0.0
# iter:   6 20:05:32   -15.668768   -2.55  -2.14   +2.9,-0.0,+0.0
# iter:   7 20:06:28   -15.668608c  -2.37  -2.22   +2.8,-0.0,+0.0
# iter:   8 20:07:24   -15.662439c  -3.18  -2.46   +2.8,-0.0,+0.0
# iter:   9 20:08:23   -15.662608c  -3.77  -2.83   +2.8,-0.0,+0.0
# iter:  10 20:09:18   -15.662650c  -4.03  -2.77   +2.8,-0.0,+0.0
# iter:  11 20:10:14   -15.662420c  -4.03  -3.07   +2.8,-0.0,+0.0
# iter:  12 20:11:08   -15.662431c  -4.63  -3.63   +2.8,-0.0,+0.0
# iter:  13 20:12:04   -15.662418c  -5.10  -3.68   +2.8,-0.0,+0.0
# iter:  14 20:12:59   -15.662437c  -5.29  -3.81   +2.8,-0.0,+0.0
# iter:  15 20:13:54   -15.662435c  -5.54  -4.12c  +2.8,-0.0,+0.0
# iter:  16 20:14:49   -15.662434c  -5.79  -4.41c  +2.8,-0.0,+0.0
# iter:  17 20:15:44   -15.662435c  -6.09  -4.44c  +2.8,-0.0,+0.0
# iter:  18 20:16:38   -15.662435c  -6.35  -4.65c  +2.8,-0.0,+0.0
# iter:  19 20:17:33   -15.662435c  -6.61  -4.89c  +2.8,-0.0,+0.0
# iter:  20 20:18:28   -15.662436c  -6.83  -4.96c  +2.8,-0.0,+0.0
# iter:  21 20:19:23   -15.662436c  -7.09  -5.20c  +2.8,-0.0,+0.0
# iter:  22 20:20:18   -15.662436c  -7.34  -5.39c  +2.8,-0.0,+0.0
# iter:  23 20:21:13   -15.662436c  -7.56c -5.41c  +2.8,-0.0,+0.0
scf_steps: 23
energies:  # eV
  coulomb:          -5.678155
  zero:              0.050809
  xc:              -16.521848
  external:          0.000000
  kinetic:           6.490149
  spinorbit:         0.000000
  entropy:          -0.006781
  total:           -15.665826
  extrapolated:    -15.662436

dipole moment: [-4.979000, -8.623911, -9.242398]  # |e|*Ang

total magnetic moment: [2.837054, -0.001938, 0.000000]

local magnetic moments: [
  [ 2.572365, -0.000082,  0.000000],  # V  0
  [-0.011068,  0.018022,  0.000000],  # Br 1
  [-0.010966,  0.018085,  0.000000]]  # Br 2


Fermi level: -0.588 eV

kpt = [-0.438, -0.438, 0.000], weight = 0.004:
  Band      eig [eV]   occ [0-1]
     0       -65.350       1.000
   ...
    19        -5.079       1.000
    20        -4.959       1.000
    21        -4.933       1.000
    22        -4.892       1.000
    23        -4.824       1.000
    24        -1.645       1.000
    25        -1.176       0.997
    26        -1.155       0.997
    27         0.133       0.001
    28         0.139       0.001
    29         0.528       0.000
    30         1.106       0.000
    31         1.109       0.000
    32         1.616       0.000
    33         1.701       0.000
    34         3.150       0.000
   ...
    41         6.217       0.000

kpt = [-0.438, -0.375, 0.000], weight = 0.004:
  Band      eig [eV]   occ [0-1]
     0       -65.350       1.000
   ...
    19        -5.099       1.000
    20        -4.937       1.000
    21        -4.927       1.000
    22        -4.869       1.000
    23        -4.810       1.000
    24        -1.616       1.000
    25        -1.220       0.998
    26        -1.154       0.997
    27         0.061       0.002
    28         0.171       0.001
    29         0.649       0.000
    30         1.047       0.000
    31         1.118       0.000
    32         1.621       0.000
    33         1.654       0.000
    34         3.127       0.000
   ...
    41         6.189       0.000

kpt = [-0.438, -0.312, 0.000], weight = 0.004:
  Band      eig [eV]   occ [0-1]
     0       -65.350       1.000
   ...
    19        -5.125       1.000
    20        -5.014       1.000
    21        -4.988       1.000
    22        -4.818       1.000
    23        -4.720       1.000
    24        -1.530       1.000
    25        -1.279       0.999
    26        -1.154       0.997
    27         0.009       0.003
    28         0.164       0.001
    29         0.778       0.000
    30         0.939       0.000
    31         1.119       0.000
    32         1.553       0.000
    33         1.650       0.000
    34         3.285       0.000
   ...
    41         6.225       0.000
(only showing first 3 out of 256 k-points)

Gap: 0.964 eV
Transition (v -> c):
  (s=0, k=247, n=26, [0.50, 0.00, 0.00]) -> (s=0, k=92, n=27, [-0.12, 0.31, 0.00])
# Writing to Band_Conv/gsq-79.gpw (mode='')

---

timing:  # [seconds]
  Total: 1306.952  # ━━━━━━━━━━━━━━━━━━━━━━━━━━━━━━━━━━━━━━━━━━━━━━━━━━━━━━━━
  Init:    33.939  # ━╸
  SCF:   1271.299  # ━━━━━━━━━━━━━━━━━━━━━━━━━━━━━━━━━━━━━━━━━━━━━━━━━━━━━━╸

Max RSS: 3002.754  # MiB
