#  __  _  _
# | _ |_)|_||  |
# |__||  | ||/\| - 24.1.0

User:   s194113@n-62-28-28
Date:   Thu May  2 08:45:22 2024
Arch:   x86_64
Pid:    16738
CWD:    /work3/s194113/10302/10302_NM/VBr2
Python: 3.8.5
gpaw:   /zhome/87/8/147075/venv-name/gpaw/gpaw (10808453a8)
_gpaw:  /zhome/87/8/147075/venv-name/gpaw/
        _gpaw.cpython-38-x86_64-linux-gnu.so (10808453a8)
ase:    /zhome/87/8/147075/venv-name/ase/ase (version 3.23.0b1-c36115a2db)
numpy:  /zhome/87/8/147075/venv-name/lib/python3.8/site-packages/numpy (version 1.24.4)
scipy:  /zhome/87/8/147075/venv-name/lib/python3.8/site-packages/scipy (version 1.10.1)
libxc:  4.3.4
units:  Angstrom and eV
cores: 12
OpenMP: False
OMP_NUM_THREADS: 1

---
input parameters:
  kpts: 
    density: 8.0
    gamma: True
  magmoms: [[2.64162512, 0, 0], [-0.02514574, 0, 0], [-0.02514574, 0, 0]]
  mixer: 
    backend: 'pulay'
    beta: 0.05
    method: 'sum'
    nmaxold: 5
    weight: 100
  mode: 
    name: 'pw'
    ecut: 800.0
    qspiral: array([0.38888889, 0.22222222, 0.        ])
  parallel: 
    kpt: None
    domain: 1
    band: 1
    order: 'kdb'
    stridebands: False
    augment_grids: False
    sl_auto: False
    sl_default: None
    sl_diagonalize: None
    sl_inverse_cholesky: None
    sl_lcao: None
    sl_lrtddft: None
    use_elpa: False
    elpasolver: '2stage'
    buffer_size: None
    gpu: False
  symmetry: 
    point_group: False
    time_reversal: False
  xc: 
    name: 'LDA'

#                        
#                        
#                        
#                        
#              Br        
#                        
#                        
#        V Br            
#                        
#                        
#                        
#                        
#                        

atoms: [  # symbols, positions [Ang] and initial magnetic moments
  [  V, [   0.000000,    0.000000,    7.448555], [ 2.642,  0.000,  0.000]], # 0
  [ Br, [   1.920224,    1.108642,    8.897111], [-0.025,  0.000,  0.000]], # 1
  [ Br, [   0.000000,    2.217284,    6.000000], [-0.025,  0.000,  0.000]]] # 2

cell: [  # Ang
#     x            y            z
  [   3.840448,    0.000000,    0.000000],
  [  -1.920224,    3.325925,    0.000000],
  [   0.000000,    0.000000,   14.897111]]

periodic: [True      , True      , False     ]
lengths:  [  3.840448,   3.840448,  14.897111]  # Ang
angles:   [ 90.000000,  90.000000, 120.000000]

symmetry:
  number of symmetries: 1
  rotations: [
    [[ 1,  0,  0], [ 0,  1,  0], [ 0,  0,  1]]]

bz sampling:
  number of bz points: 256
  number of ibz points: 256
  monkhorst-pack size: [16, 16, 1]
  monkhorst-pack shift: [0.03125, 0.03125, 0.0]
  points and weights: [
    [[ -0.43750000,  -0.43750000,   0.00000000], 0.00390625],  # 0
    [[ -0.43750000,  -0.37500000,   0.00000000], 0.00390625],  # 1
    [[ -0.43750000,  -0.31250000,   0.00000000], 0.00390625],  # 2
    [[ -0.43750000,  -0.25000000,   0.00000000], 0.00390625],  # 3
    [[ -0.43750000,  -0.18750000,   0.00000000], 0.00390625],  # 4
    [[ -0.43750000,  -0.12500000,   0.00000000], 0.00390625],  # 5
    [[ -0.43750000,  -0.06250000,   0.00000000], 0.00390625],  # 6
    [[ -0.43750000,   0.00000000,   0.00000000], 0.00390625],  # 7
    [[ -0.43750000,   0.06250000,   0.00000000], 0.00390625],  # 8
    [[ -0.43750000,   0.12500000,   0.00000000], 0.00390625],  # 9
    # ...
    [[  0.50000000,   0.50000000,   0.00000000], 0.00390625]]  # 255

plane wave coefficients: 9805
cutoff: 800.0 eV

spin-components: 4  # (non-collinear spins)
bands: 42
valence electrons: 27.0
spin-degeneracy: 1
dtype: complex128

memory:
    wave functions: 3_359_440_896  # bytes  (279_953_408 per core)

parallelization:
    kpt:    12
    domain: 1
    band:   1

density:
  components: 4
  grid points: [27 27 98]
  charge: 0.0  # |e|

potential:
  grid points: [27 27 98]

species:
  V:
    name: Vanadium
    id: 7939ce69e6bb5930668dfcf9bb1979c3
    Z: 23.0
    valence: 13
    core: 10
    charge: 0.0
    file: /zhome/86/d/1666/PAW/gpaw-setups-0.9.20000/V.LDA.gz
    compensation charges: {type: gauss,
                           rc: 0.37,
                           lmax: 2}
    cutoffs: {filter: 2.14,
              core: 0.96}
    valence states:
      #              energy  rcut
      - 3s(2.00)   -69.819   1.254
      - 4s(2.00)    -4.846   1.254
      - 3p(6.00)   -43.961   1.281
      - 4p(0.00)    -1.526   1.281
      - 3d(3.00)    -5.381   1.169
      -  d          21.830   1.169
  
    # Using partial waves for V as LCAO basis

  Br:
    name: Bromine
    id: 10a25bbcb3273ec7d8d7f6fc01d2618d
    Z: 35.0
    valence: 7
    core: 28
    charge: 0.0
    file: /zhome/86/d/1666/PAW/gpaw-setups-0.9.20000/Br.LDA.gz
    compensation charges: {type: gauss,
                           rc: 0.35,
                           lmax: 2}
    cutoffs: {filter: 1.98,
              core: 2.38}
    valence states:
      #              energy  rcut
      - 4s(2.00)   -20.306   1.111
      - 4p(5.00)    -8.003   1.111
      -  s           6.906   1.111
      -  p          19.208   1.111
      -  d           0.000   1.111
  
    # Using partial waves for Br as LCAO basis

Reference energy: -167392.690611  # eV

eigensolver:
  name: 'Davidson'
  niter: 2
  converge_bands: 'occupied'
Density mixing:
  Method: sum
  Backend: pulay
  Linear mixing parameter: 0.05
  old densities: 5
  Damping of long wavelength oscillations: 100
occupation numbers:
  Fermi-Dirac:
    width: 0.1000  # eV
  

poisson solver:
  ecut: 6400.0  # eV

xc functional:
  name: None

convergence criteria:
- Maximum [total energy] change in last 3 cyles: 0.0005 eV / valence electron
- Maximum integral of absolute [dens]ity change: 0.0001 electrons / valence electron
- Maximum integral of absolute [eigenst]ate change: 4e-08 eV^2 / valence electron
maximum number of iterations: 333

#      iter     time        total  log10-change:
#                          energy   eigst   dens
# iter:   1 08:46:48   -15.003005                  +2.6,+0.0,+0.0
# iter:   2 08:47:44   -15.657758   +0.16  -1.41   +2.6,+0.0,+0.0
# iter:   3 08:48:40   -15.627290   -0.69  -1.44   +2.6,+0.0,-0.0
# iter:   4 08:49:36   -15.645741   -1.23  -1.54   +2.6,+0.0,+0.0
# iter:   5 08:50:32   -15.713977   -1.48  -1.66   +2.6,-0.0,+0.0
# iter:   6 08:51:28   -15.681652   -2.26  -2.05   +2.6,-0.0,+0.0
# iter:   7 08:52:24   -15.677462   -2.38  -2.21   +2.6,-0.0,+0.0
# iter:   8 08:53:20   -15.674628c  -3.14  -2.42   +2.6,-0.0,-0.0
# iter:   9 08:54:16   -15.676559c  -3.17  -2.82   +2.6,-0.0,-0.0
# iter:  10 08:55:11   -15.674857c  -3.50  -2.64   +2.6,-0.0,+0.0
# iter:  11 08:56:07   -15.674684c  -4.07  -3.19   +2.6,-0.0,+0.0
# iter:  12 08:57:02   -15.674680c  -4.42  -3.52   +2.6,-0.0,+0.0
# iter:  13 08:57:57   -15.674690c  -4.72  -3.62   +2.6,-0.0,+0.0
# iter:  14 08:58:51   -15.674674c  -4.75  -3.72   +2.6,-0.0,+0.0
# iter:  15 08:59:46   -15.674669c  -5.06  -3.76   +2.6,-0.0,+0.0
# iter:  16 09:00:41   -15.674669c  -5.44  -4.07c  +2.6,-0.0,+0.0
# iter:  17 09:01:36   -15.674671c  -5.64  -4.13c  +2.6,-0.0,+0.0
# iter:  18 09:02:31   -15.674670c  -5.93  -4.34c  +2.6,-0.0,+0.0
# iter:  19 09:03:25   -15.674670c  -6.15  -4.41c  +2.6,-0.0,+0.0
# iter:  20 09:04:20   -15.674671c  -6.32  -4.46c  +2.6,-0.0,+0.0
# iter:  21 09:05:15   -15.674671c  -6.58  -4.56c  +2.6,-0.0,+0.0
# iter:  22 09:06:10   -15.674673c  -6.75  -4.60c  +2.6,-0.0,+0.0
# iter:  23 09:07:04   -15.674674c  -6.98  -4.74c  +2.6,-0.0,+0.0
# iter:  24 09:07:59   -15.674674c  -7.18  -4.89c  +2.6,-0.0,+0.0
# iter:  25 09:08:56   -15.674673c  -7.15  -5.07c  +2.6,-0.0,+0.0
# iter:  26 09:09:51   -15.674673c  -7.61c -5.16c  +2.6,-0.0,+0.0
scf_steps: 26
energies:  # eV
  coulomb:          -5.355017
  zero:              0.051261
  xc:              -16.399625
  external:          0.000000
  kinetic:           6.032127
  spinorbit:         0.000000
  entropy:          -0.006840
  total:           -15.678093
  extrapolated:    -15.674673

dipole moment: [-4.584907, -8.165872, -7.777053]  # |e|*Ang

total magnetic moment: [2.614991, -0.000166, 0.000000]

local magnetic moments: [
  [ 2.528852, -0.000006, -0.000000],  # V  0
  [ 0.004802,  0.000051,  0.000000],  # Br 1
  [-0.003643,  0.003124,  0.000000]]  # Br 2


Fermi level: -0.652 eV

kpt = [-0.438, -0.438, 0.000], weight = 0.004:
  Band      eig [eV]   occ [0-1]
     0       -65.398       1.000
   ...
    19        -5.205       1.000
    20        -5.082       1.000
    21        -5.026       1.000
    22        -4.828       1.000
    23        -4.775       1.000
    24        -1.466       1.000
    25        -1.273       0.998
    26        -1.199       0.996
    27        -0.011       0.002
    28         0.088       0.001
    29         0.785       0.000
    30         0.867       0.000
    31         1.014       0.000
    32         1.467       0.000
    33         1.542       0.000
    34         3.699       0.000
   ...
    41         6.045       0.000

kpt = [-0.438, -0.375, 0.000], weight = 0.004:
  Band      eig [eV]   occ [0-1]
     0       -65.398       1.000
   ...
    19        -5.194       1.000
    20        -5.118       1.000
    21        -5.031       1.000
    22        -4.716       1.000
    23        -4.659       1.000
    24        -1.486       1.000
    25        -1.316       0.999
    26        -1.226       0.997
    27        -0.076       0.003
    28         0.113       0.000
    29         0.804       0.000
    30         0.860       0.000
    31         0.990       0.000
    32         1.433       0.000
    33         1.550       0.000
    34         3.430       0.000
   ...
    41         6.161       0.000

kpt = [-0.438, -0.312, 0.000], weight = 0.004:
  Band      eig [eV]   occ [0-1]
     0       -65.398       1.000
   ...
    19        -5.176       1.000
    20        -5.029       1.000
    21        -4.849       1.000
    22        -4.616       1.000
    23        -4.516       1.000
    24        -1.545       1.000
    25        -1.328       0.999
    26        -1.254       0.998
    27        -0.115       0.005
    28         0.129       0.000
    29         0.740       0.000
    30         0.916       0.000
    31         0.933       0.000
    32         1.370       0.000
    33         1.536       0.000
    34         3.204       0.000
   ...
    41         5.557       0.000
(only showing first 3 out of 256 k-points)

Gap: 0.870 eV
Transition (v -> c):
  (s=0, k=247, n=26, [0.50, 0.00, 0.00]) -> (s=0, k=115, n=27, [0.00, -0.25, 0.00])
# Writing to Band_Conv/gsq-50.gpw (mode='')

---

timing:  # [seconds]
  Total: 1470.060  # ━━━━━━━━━━━━━━━━━━━━━━━━━━━━━━━━━━━━━━━━━━━━━━━━━━━━━━━━
  Init:    34.166  # ━╸
  SCF:   1434.241  # ━━━━━━━━━━━━━━━━━━━━━━━━━━━━━━━━━━━━━━━━━━━━━━━━━━━━━━╸

Max RSS: 2344.750  # MiB
