#  __  _  _
# | _ |_)|_||  |
# |__||  | ||/\| - 24.1.0

User:   s194113@n-62-28-28
Date:   Thu May  2 01:41:13 2024
Arch:   x86_64
Pid:    16738
CWD:    /work3/s194113/10302/10302_NM/VBr2
Python: 3.8.5
gpaw:   /zhome/87/8/147075/venv-name/gpaw/gpaw (10808453a8)
_gpaw:  /zhome/87/8/147075/venv-name/gpaw/
        _gpaw.cpython-38-x86_64-linux-gnu.so (10808453a8)
ase:    /zhome/87/8/147075/venv-name/ase/ase (version 3.23.0b1-c36115a2db)
numpy:  /zhome/87/8/147075/venv-name/lib/python3.8/site-packages/numpy (version 1.24.4)
scipy:  /zhome/87/8/147075/venv-name/lib/python3.8/site-packages/scipy (version 1.10.1)
libxc:  4.3.4
units:  Angstrom and eV
cores: 12
OpenMP: False
OMP_NUM_THREADS: 1

---
input parameters:
  kpts: 
    density: 8.0
    gamma: True
  magmoms: [[2.64162512, 0, 0], [-0.02514574, 0, 0], [-0.02514574, 0, 0]]
  mixer: 
    backend: 'pulay'
    beta: 0.05
    method: 'sum'
    nmaxold: 5
    weight: 100
  mode: 
    name: 'pw'
    ecut: 800.0
    qspiral: array([0.44444444, 0.        , 0.        ])
  parallel: 
    kpt: None
    domain: 1
    band: 1
    order: 'kdb'
    stridebands: False
    augment_grids: False
    sl_auto: False
    sl_default: None
    sl_diagonalize: None
    sl_inverse_cholesky: None
    sl_lcao: None
    sl_lrtddft: None
    use_elpa: False
    elpasolver: '2stage'
    buffer_size: None
    gpu: False
  symmetry: 
    point_group: False
    time_reversal: False
  xc: 
    name: 'LDA'

#                        
#                        
#                        
#                        
#              Br        
#                        
#                        
#        V Br            
#                        
#                        
#                        
#                        
#                        

atoms: [  # symbols, positions [Ang] and initial magnetic moments
  [  V, [   0.000000,    0.000000,    7.448555], [ 2.642,  0.000,  0.000]], # 0
  [ Br, [   1.920224,    1.108642,    8.897111], [-0.025,  0.000,  0.000]], # 1
  [ Br, [   0.000000,    2.217284,    6.000000], [-0.025,  0.000,  0.000]]] # 2

cell: [  # Ang
#     x            y            z
  [   3.840448,    0.000000,    0.000000],
  [  -1.920224,    3.325925,    0.000000],
  [   0.000000,    0.000000,   14.897111]]

periodic: [True      , True      , False     ]
lengths:  [  3.840448,   3.840448,  14.897111]  # Ang
angles:   [ 90.000000,  90.000000, 120.000000]

symmetry:
  number of symmetries: 1
  rotations: [
    [[ 1,  0,  0], [ 0,  1,  0], [ 0,  0,  1]]]

bz sampling:
  number of bz points: 256
  number of ibz points: 256
  monkhorst-pack size: [16, 16, 1]
  monkhorst-pack shift: [0.03125, 0.03125, 0.0]
  points and weights: [
    [[ -0.43750000,  -0.43750000,   0.00000000], 0.00390625],  # 0
    [[ -0.43750000,  -0.37500000,   0.00000000], 0.00390625],  # 1
    [[ -0.43750000,  -0.31250000,   0.00000000], 0.00390625],  # 2
    [[ -0.43750000,  -0.25000000,   0.00000000], 0.00390625],  # 3
    [[ -0.43750000,  -0.18750000,   0.00000000], 0.00390625],  # 4
    [[ -0.43750000,  -0.12500000,   0.00000000], 0.00390625],  # 5
    [[ -0.43750000,  -0.06250000,   0.00000000], 0.00390625],  # 6
    [[ -0.43750000,   0.00000000,   0.00000000], 0.00390625],  # 7
    [[ -0.43750000,   0.06250000,   0.00000000], 0.00390625],  # 8
    [[ -0.43750000,   0.12500000,   0.00000000], 0.00390625],  # 9
    # ...
    [[  0.50000000,   0.50000000,   0.00000000], 0.00390625]]  # 255

plane wave coefficients: 9805
cutoff: 800.0 eV

spin-components: 4  # (non-collinear spins)
bands: 42
valence electrons: 27.0
spin-degeneracy: 1
dtype: complex128

memory:
    wave functions: 3_359_440_896  # bytes  (279_953_408 per core)

parallelization:
    kpt:    12
    domain: 1
    band:   1

density:
  components: 4
  grid points: [27 27 98]
  charge: 0.0  # |e|

potential:
  grid points: [27 27 98]

species:
  V:
    name: Vanadium
    id: 7939ce69e6bb5930668dfcf9bb1979c3
    Z: 23.0
    valence: 13
    core: 10
    charge: 0.0
    file: /zhome/86/d/1666/PAW/gpaw-setups-0.9.20000/V.LDA.gz
    compensation charges: {type: gauss,
                           rc: 0.37,
                           lmax: 2}
    cutoffs: {filter: 2.14,
              core: 0.96}
    valence states:
      #              energy  rcut
      - 3s(2.00)   -69.819   1.254
      - 4s(2.00)    -4.846   1.254
      - 3p(6.00)   -43.961   1.281
      - 4p(0.00)    -1.526   1.281
      - 3d(3.00)    -5.381   1.169
      -  d          21.830   1.169
  
    # Using partial waves for V as LCAO basis

  Br:
    name: Bromine
    id: 10a25bbcb3273ec7d8d7f6fc01d2618d
    Z: 35.0
    valence: 7
    core: 28
    charge: 0.0
    file: /zhome/86/d/1666/PAW/gpaw-setups-0.9.20000/Br.LDA.gz
    compensation charges: {type: gauss,
                           rc: 0.35,
                           lmax: 2}
    cutoffs: {filter: 1.98,
              core: 2.38}
    valence states:
      #              energy  rcut
      - 4s(2.00)   -20.306   1.111
      - 4p(5.00)    -8.003   1.111
      -  s           6.906   1.111
      -  p          19.208   1.111
      -  d           0.000   1.111
  
    # Using partial waves for Br as LCAO basis

Reference energy: -167392.690611  # eV

eigensolver:
  name: 'Davidson'
  niter: 2
  converge_bands: 'occupied'
Density mixing:
  Method: sum
  Backend: pulay
  Linear mixing parameter: 0.05
  old densities: 5
  Damping of long wavelength oscillations: 100
occupation numbers:
  Fermi-Dirac:
    width: 0.1000  # eV
  

poisson solver:
  ecut: 6400.0  # eV

xc functional:
  name: None

convergence criteria:
- Maximum [total energy] change in last 3 cyles: 0.0005 eV / valence electron
- Maximum integral of absolute [dens]ity change: 0.0001 electrons / valence electron
- Maximum integral of absolute [eigenst]ate change: 4e-08 eV^2 / valence electron
maximum number of iterations: 333

#      iter     time        total  log10-change:
#                          energy   eigst   dens
# iter:   1 01:42:40   -15.267247                  +2.6,+0.0,+0.0
# iter:   2 01:43:36   -15.688176   +0.02  -1.41   +2.6,+0.0,-0.0
# iter:   3 01:44:32   -15.620329   -0.82  -1.44   +2.6,+0.0,-0.0
# iter:   4 01:45:28   -15.641035   -1.32  -1.55   +2.7,+0.0,+0.0
# iter:   5 01:46:24   -15.695453   -1.65  -1.66   +2.7,-0.0,-0.0
# iter:   6 01:47:20   -15.676008   -2.38  -2.10   +2.7,-0.0,-0.0
# iter:   7 01:48:15   -15.671892   -2.39  -2.21   +2.7,-0.0,-0.0
# iter:   8 01:49:11   -15.668724c  -3.22  -2.47   +2.7,-0.0,-0.0
# iter:   9 01:50:07   -15.670084c  -3.31  -2.84   +2.7,-0.0,-0.0
# iter:  10 01:51:03   -15.669048c  -3.78  -2.67   +2.7,-0.0,-0.0
# iter:  11 01:51:58   -15.668744c  -4.08  -3.15   +2.7,-0.0,-0.0
# iter:  12 01:52:54   -15.668743c  -4.57  -3.66   +2.7,-0.0,-0.0
# iter:  13 01:53:50   -15.668738c  -4.82  -3.69   +2.7,-0.0,-0.0
# iter:  14 01:54:45   -15.668725c  -4.91  -3.71   +2.7,-0.0,-0.0
# iter:  15 01:55:40   -15.668727c  -5.38  -3.98   +2.7,-0.0,-0.0
# iter:  16 01:56:35   -15.668729c  -5.61  -4.05c  +2.7,-0.0,-0.0
# iter:  17 01:57:30   -15.668732c  -5.76  -4.07c  +2.7,-0.0,-0.0
# iter:  18 01:58:25   -15.668734c  -6.05  -4.13c  +2.7,-0.0,-0.0
# iter:  19 01:59:20   -15.668737c  -6.22  -4.24c  +2.7,-0.0,-0.0
# iter:  20 02:00:15   -15.668740c  -6.42  -4.32c  +2.7,-0.0,-0.0
# iter:  21 02:01:10   -15.668740c  -6.74  -4.33c  +2.7,-0.0,-0.0
# iter:  22 02:02:05   -15.668742c  -6.78  -4.38c  +2.7,-0.0,-0.0
# iter:  23 02:03:00   -15.668742c  -7.16  -4.67c  +2.7,-0.0,-0.0
# iter:  24 02:03:55   -15.668741c  -7.43c -4.75c  +2.7,-0.0,-0.0
scf_steps: 24
energies:  # eV
  coulomb:          -5.505535
  zero:              0.052246
  xc:              -16.439550
  external:          0.000000
  kinetic:           6.227851
  spinorbit:         0.000000
  entropy:          -0.007508
  total:           -15.672495
  extrapolated:    -15.668741

dipole moment: [-4.585012, -8.491396, -8.382025]  # |e|*Ang

total magnetic moment: [2.701516, -0.000624, -0.000000]

local magnetic moments: [
  [ 2.540420, -0.000025, -0.000000],  # V  0
  [ 0.006768,  0.007281, -0.000000],  # Br 1
  [-0.008858,  0.004526, -0.000000]]  # Br 2


Fermi level: -0.659 eV

kpt = [-0.438, -0.438, 0.000], weight = 0.004:
  Band      eig [eV]   occ [0-1]
     0       -65.388       1.000
   ...
    19        -5.214       1.000
    20        -5.020       1.000
    21        -4.947       1.000
    22        -4.801       1.000
    23        -4.582       1.000
    24        -1.554       1.000
    25        -1.298       0.998
    26        -1.171       0.994
    27        -0.024       0.002
    28         0.140       0.000
    29         0.670       0.000
    30         0.823       0.000
    31         1.090       0.000
    32         1.468       0.000
    33         1.602       0.000
    34         3.366       0.000
   ...
    41         5.980       0.000

kpt = [-0.438, -0.375, 0.000], weight = 0.004:
  Band      eig [eV]   occ [0-1]
     0       -65.388       1.000
   ...
    19        -5.143       1.000
    20        -4.988       1.000
    21        -4.859       1.000
    22        -4.737       1.000
    23        -4.491       1.000
    24        -1.568       1.000
    25        -1.320       0.999
    26        -1.187       0.995
    27        -0.082       0.003
    28         0.163       0.000
    29         0.722       0.000
    30         0.846       0.000
    31         1.081       0.000
    32         1.395       0.000
    33         1.581       0.000
    34         3.204       0.000
   ...
    41         6.009       0.000

kpt = [-0.438, -0.312, 0.000], weight = 0.004:
  Band      eig [eV]   occ [0-1]
     0       -65.388       1.000
   ...
    19        -5.129       1.000
    20        -5.111       1.000
    21        -4.731       1.000
    22        -4.652       1.000
    23        -4.396       1.000
    24        -1.530       1.000
    25        -1.316       0.999
    26        -1.230       0.997
    27        -0.157       0.007
    28         0.175       0.000
    29         0.769       0.000
    30         0.882       0.000
    31         0.985       0.000
    32         1.287       0.000
    33         1.566       0.000
    34         3.268       0.000
   ...
    41         5.858       0.000
(only showing first 3 out of 256 k-points)

Gap: 0.824 eV
Transition (v -> c):
  (s=0, k=247, n=26, [0.50, 0.00, 0.00]) -> (s=0, k=115, n=27, [0.00, -0.25, 0.00])
# Writing to Band_Conv/gsq-32.gpw (mode='')

