#  __  _  _
# | _ |_)|_||  |
# |__||  | ||/\| - 24.1.0

User:   s194113@n-62-28-28
Date:   Thu May  2 12:43:32 2024
Arch:   x86_64
Pid:    16738
CWD:    /work3/s194113/10302/10302_NM/VBr2
Python: 3.8.5
gpaw:   /zhome/87/8/147075/venv-name/gpaw/gpaw (10808453a8)
_gpaw:  /zhome/87/8/147075/venv-name/gpaw/
        _gpaw.cpython-38-x86_64-linux-gnu.so (10808453a8)
ase:    /zhome/87/8/147075/venv-name/ase/ase (version 3.23.0b1-c36115a2db)
numpy:  /zhome/87/8/147075/venv-name/lib/python3.8/site-packages/numpy (version 1.24.4)
scipy:  /zhome/87/8/147075/venv-name/lib/python3.8/site-packages/scipy (version 1.10.1)
libxc:  4.3.4
units:  Angstrom and eV
cores: 12
OpenMP: False
OMP_NUM_THREADS: 1

---
input parameters:
  kpts: 
    density: 8.0
    gamma: True
  magmoms: [[2.64162512, 0, 0], [-0.02514574, 0, 0], [-0.02514574, 0, 0]]
  mixer: 
    backend: 'pulay'
    beta: 0.05
    method: 'sum'
    nmaxold: 5
    weight: 100
  mode: 
    name: 'pw'
    ecut: 800.0
    qspiral: array([0.31007752, 0.31007752, 0.        ])
  parallel: 
    kpt: None
    domain: 1
    band: 1
    order: 'kdb'
    stridebands: False
    augment_grids: False
    sl_auto: False
    sl_default: None
    sl_diagonalize: None
    sl_inverse_cholesky: None
    sl_lcao: None
    sl_lrtddft: None
    use_elpa: False
    elpasolver: '2stage'
    buffer_size: None
    gpu: False
  symmetry: 
    point_group: False
    time_reversal: False
  xc: 
    name: 'LDA'

#                        
#                        
#                        
#                        
#              Br        
#                        
#                        
#        V Br            
#                        
#                        
#                        
#                        
#                        

atoms: [  # symbols, positions [Ang] and initial magnetic moments
  [  V, [   0.000000,    0.000000,    7.448555], [ 2.642,  0.000,  0.000]], # 0
  [ Br, [   1.920224,    1.108642,    8.897111], [-0.025,  0.000,  0.000]], # 1
  [ Br, [   0.000000,    2.217284,    6.000000], [-0.025,  0.000,  0.000]]] # 2

cell: [  # Ang
#     x            y            z
  [   3.840448,    0.000000,    0.000000],
  [  -1.920224,    3.325925,    0.000000],
  [   0.000000,    0.000000,   14.897111]]

periodic: [True      , True      , False     ]
lengths:  [  3.840448,   3.840448,  14.897111]  # Ang
angles:   [ 90.000000,  90.000000, 120.000000]

symmetry:
  number of symmetries: 1
  rotations: [
    [[ 1,  0,  0], [ 0,  1,  0], [ 0,  0,  1]]]

bz sampling:
  number of bz points: 256
  number of ibz points: 256
  monkhorst-pack size: [16, 16, 1]
  monkhorst-pack shift: [0.03125, 0.03125, 0.0]
  points and weights: [
    [[ -0.43750000,  -0.43750000,   0.00000000], 0.00390625],  # 0
    [[ -0.43750000,  -0.37500000,   0.00000000], 0.00390625],  # 1
    [[ -0.43750000,  -0.31250000,   0.00000000], 0.00390625],  # 2
    [[ -0.43750000,  -0.25000000,   0.00000000], 0.00390625],  # 3
    [[ -0.43750000,  -0.18750000,   0.00000000], 0.00390625],  # 4
    [[ -0.43750000,  -0.12500000,   0.00000000], 0.00390625],  # 5
    [[ -0.43750000,  -0.06250000,   0.00000000], 0.00390625],  # 6
    [[ -0.43750000,   0.00000000,   0.00000000], 0.00390625],  # 7
    [[ -0.43750000,   0.06250000,   0.00000000], 0.00390625],  # 8
    [[ -0.43750000,   0.12500000,   0.00000000], 0.00390625],  # 9
    # ...
    [[  0.50000000,   0.50000000,   0.00000000], 0.00390625]]  # 255

plane wave coefficients: 9805
cutoff: 800.0 eV

spin-components: 4  # (non-collinear spins)
bands: 42
valence electrons: 27.0
spin-degeneracy: 1
dtype: complex128

memory:
    wave functions: 3_359_440_896  # bytes  (279_953_408 per core)

parallelization:
    kpt:    12
    domain: 1
    band:   1

density:
  components: 4
  grid points: [27 27 98]
  charge: 0.0  # |e|

potential:
  grid points: [27 27 98]

species:
  V:
    name: Vanadium
    id: 7939ce69e6bb5930668dfcf9bb1979c3
    Z: 23.0
    valence: 13
    core: 10
    charge: 0.0
    file: /zhome/86/d/1666/PAW/gpaw-setups-0.9.20000/V.LDA.gz
    compensation charges: {type: gauss,
                           rc: 0.37,
                           lmax: 2}
    cutoffs: {filter: 2.14,
              core: 0.96}
    valence states:
      #              energy  rcut
      - 3s(2.00)   -69.819   1.254
      - 4s(2.00)    -4.846   1.254
      - 3p(6.00)   -43.961   1.281
      - 4p(0.00)    -1.526   1.281
      - 3d(3.00)    -5.381   1.169
      -  d          21.830   1.169
  
    # Using partial waves for V as LCAO basis

  Br:
    name: Bromine
    id: 10a25bbcb3273ec7d8d7f6fc01d2618d
    Z: 35.0
    valence: 7
    core: 28
    charge: 0.0
    file: /zhome/86/d/1666/PAW/gpaw-setups-0.9.20000/Br.LDA.gz
    compensation charges: {type: gauss,
                           rc: 0.35,
                           lmax: 2}
    cutoffs: {filter: 1.98,
              core: 2.38}
    valence states:
      #              energy  rcut
      - 4s(2.00)   -20.306   1.111
      - 4p(5.00)    -8.003   1.111
      -  s           6.906   1.111
      -  p          19.208   1.111
      -  d           0.000   1.111
  
    # Using partial waves for Br as LCAO basis

Reference energy: -167392.690611  # eV

eigensolver:
  name: 'Davidson'
  niter: 2
  converge_bands: 'occupied'
Density mixing:
  Method: sum
  Backend: pulay
  Linear mixing parameter: 0.05
  old densities: 5
  Damping of long wavelength oscillations: 100
occupation numbers:
  Fermi-Dirac:
    width: 0.1000  # eV
  

poisson solver:
  ecut: 6400.0  # eV

xc functional:
  name: None

convergence criteria:
- Maximum [total energy] change in last 3 cyles: 0.0005 eV / valence electron
- Maximum integral of absolute [dens]ity change: 0.0001 electrons / valence electron
- Maximum integral of absolute [eigenst]ate change: 4e-08 eV^2 / valence electron
maximum number of iterations: 333

#      iter     time        total  log10-change:
#                          energy   eigst   dens
# iter:   1 12:44:59   -14.996756                  +2.6,+0.0,+0.0
# iter:   2 12:45:55   -15.658110   +0.17  -1.41   +2.6,+0.0,+0.0
# iter:   3 12:46:51   -15.628874   -0.69  -1.44   +2.6,+0.0,+0.0
# iter:   4 12:47:47   -15.647021   -1.23  -1.54   +2.6,+0.0,+0.0
# iter:   5 12:48:42   -15.717952   -1.47  -1.66   +2.6,-0.0,+0.0
# iter:   6 12:49:38   -15.683370   -2.26  -2.04   +2.6,-0.0,-0.0
# iter:   7 12:50:33   -15.678736   -2.38  -2.21   +2.6,-0.0,-0.0
# iter:   8 12:51:28   -15.675967c  -3.13  -2.41   +2.6,-0.0,-0.0
# iter:   9 12:52:24   -15.677728c  -3.17  -2.81   +2.6,-0.0,-0.0
# iter:  10 12:53:19   -15.676203c  -3.53  -2.65   +2.6,-0.0,-0.0
# iter:  11 12:54:14   -15.676026c  -4.08  -3.17   +2.6,-0.0,-0.0
# iter:  12 12:55:10   -15.676018c  -4.41  -3.48   +2.6,-0.0,+0.0
# iter:  13 12:56:05   -15.676029c  -4.71  -3.60   +2.6,-0.0,+0.0
# iter:  14 12:57:01   -15.676019c  -4.80  -3.70   +2.6,-0.0,-0.0
# iter:  15 12:57:56   -15.676010c  -5.01  -3.73   +2.6,-0.0,-0.0
# iter:  16 12:58:51   -15.676009c  -5.43  -4.32c  +2.6,-0.0,-0.0
# iter:  17 12:59:45   -15.676009c  -5.70  -4.36c  +2.6,-0.0,-0.0
# iter:  18 13:00:40   -15.676011c  -5.91  -4.39c  +2.6,-0.0,-0.0
# iter:  19 13:01:35   -15.676011c  -6.16  -4.47c  +2.6,-0.0,-0.0
# iter:  20 13:02:29   -15.676011c  -6.36  -4.53c  +2.6,-0.0,+0.0
# iter:  21 13:03:24   -15.676012c  -6.56  -4.56c  +2.6,-0.0,-0.0
# iter:  22 13:04:19   -15.676011c  -6.80  -4.64c  +2.6,-0.0,-0.0
# iter:  23 13:05:14   -15.676010c  -7.06  -5.51c  +2.6,-0.0,-0.0
# iter:  24 13:06:10   -15.676010c  -7.28  -5.51c  +2.6,-0.0,-0.0
# iter:  25 13:07:05   -15.676010c  -7.49c -5.59c  +2.6,-0.0,-0.0
scf_steps: 25
energies:  # eV
  coulomb:          -5.327346
  zero:              0.051660
  xc:              -16.390953
  external:          0.000000
  kinetic:           5.993990
  spinorbit:         0.000000
  entropy:          -0.006722
  total:           -15.679371
  extrapolated:    -15.676010

dipole moment: [-4.675559, -8.098280, -7.726500]  # |e|*Ang

total magnetic moment: [2.610056, -0.000264, -0.000000]

local magnetic moments: [
  [ 2.526302, -0.000011,  0.000000],  # V  0
  [ 0.000941,  0.002559, -0.000000],  # Br 1
  [ 0.001069,  0.002508, -0.000000]]  # Br 2


Fermi level: -0.649 eV

kpt = [-0.438, -0.438, 0.000], weight = 0.004:
  Band      eig [eV]   occ [0-1]
     0       -65.400       1.000
   ...
    19        -5.217       1.000
    20        -5.093       1.000
    21        -4.980       1.000
    22        -4.871       1.000
    23        -4.780       1.000
    24        -1.459       1.000
    25        -1.266       0.998
    26        -1.202       0.996
    27        -0.001       0.002
    28         0.070       0.001
    29         0.797       0.000
    30         0.900       0.000
    31         0.980       0.000
    32         1.489       0.000
    33         1.502       0.000
    34         3.724       0.000
   ...
    41         6.219       0.000

kpt = [-0.438, -0.375, 0.000], weight = 0.004:
  Band      eig [eV]   occ [0-1]
     0       -65.400       1.000
   ...
    19        -5.196       1.000
    20        -5.084       1.000
    21        -5.011       1.000
    22        -4.830       1.000
    23        -4.660       1.000
    24        -1.486       1.000
    25        -1.333       0.999
    26        -1.221       0.997
    27        -0.058       0.003
    28         0.103       0.001
    29         0.804       0.000
    30         0.882       0.000
    31         0.975       0.000
    32         1.475       0.000
    33         1.543       0.000
    34         3.424       0.000
   ...
    41         5.751       0.000

kpt = [-0.438, -0.312, 0.000], weight = 0.004:
  Band      eig [eV]   occ [0-1]
     0       -65.400       1.000
   ...
    19        -5.140       1.000
    20        -5.018       1.000
    21        -4.910       1.000
    22        -4.746       1.000
    23        -4.529       1.000
    24        -1.553       1.000
    25        -1.392       0.999
    26        -1.222       0.997
    27        -0.072       0.003
    28         0.117       0.000
    29         0.727       0.000
    30         0.891       0.000
    31         0.984       0.000
    32         1.445       0.000
    33         1.555       0.000
    34         3.186       0.000
   ...
    41         5.488       0.000
(only showing first 3 out of 256 k-points)

Gap: 0.897 eV
Transition (v -> c):
  (s=0, k=119, n=26, [0.00, 0.00, 0.00]) -> (s=0, k=36, n=27, [-0.31, -0.19, 0.00])
# Writing to Band_Conv/gsq-60.gpw (mode='')

---

timing:  # [seconds]
  Total: 1414.666  # ━━━━━━━━━━━━━━━━━━━━━━━━━━━━━━━━━━━━━━━━━━━━━━━━━━━━━━━━
  Init:    34.153  # ━╸
  SCF:   1378.786  # ━━━━━━━━━━━━━━━━━━━━━━━━━━━━━━━━━━━━━━━━━━━━━━━━━━━━━━╸

Max RSS: 2567.066  # MiB
