#  __  _  _
# | _ |_)|_||  |
# |__||  | ||/\| - 24.1.0

User:   s194113@n-62-28-28
Date:   Thu May  2 01:18:41 2024
Arch:   x86_64
Pid:    16738
CWD:    /work3/s194113/10302/10302_NM/VBr2
Python: 3.8.5
gpaw:   /zhome/87/8/147075/venv-name/gpaw/gpaw (10808453a8)
_gpaw:  /zhome/87/8/147075/venv-name/gpaw/
        _gpaw.cpython-38-x86_64-linux-gnu.so (10808453a8)
ase:    /zhome/87/8/147075/venv-name/ase/ase (version 3.23.0b1-c36115a2db)
numpy:  /zhome/87/8/147075/venv-name/lib/python3.8/site-packages/numpy (version 1.24.4)
scipy:  /zhome/87/8/147075/venv-name/lib/python3.8/site-packages/scipy (version 1.10.1)
libxc:  4.3.4
units:  Angstrom and eV
cores: 12
OpenMP: False
OMP_NUM_THREADS: 1

---
input parameters:
  kpts: 
    density: 8.0
    gamma: True
  magmoms: [[2.64162512, 0, 0], [-0.02514574, 0, 0], [-0.02514574, 0, 0]]
  mixer: 
    backend: 'pulay'
    beta: 0.05
    method: 'sum'
    nmaxold: 5
    weight: 100
  mode: 
    name: 'pw'
    ecut: 800.0
    qspiral: array([0.43055556, 0.        , 0.        ])
  parallel: 
    kpt: None
    domain: 1
    band: 1
    order: 'kdb'
    stridebands: False
    augment_grids: False
    sl_auto: False
    sl_default: None
    sl_diagonalize: None
    sl_inverse_cholesky: None
    sl_lcao: None
    sl_lrtddft: None
    use_elpa: False
    elpasolver: '2stage'
    buffer_size: None
    gpu: False
  symmetry: 
    point_group: False
    time_reversal: False
  xc: 
    name: 'LDA'

#                        
#                        
#                        
#                        
#              Br        
#                        
#                        
#        V Br            
#                        
#                        
#                        
#                        
#                        

atoms: [  # symbols, positions [Ang] and initial magnetic moments
  [  V, [   0.000000,    0.000000,    7.448555], [ 2.642,  0.000,  0.000]], # 0
  [ Br, [   1.920224,    1.108642,    8.897111], [-0.025,  0.000,  0.000]], # 1
  [ Br, [   0.000000,    2.217284,    6.000000], [-0.025,  0.000,  0.000]]] # 2

cell: [  # Ang
#     x            y            z
  [   3.840448,    0.000000,    0.000000],
  [  -1.920224,    3.325925,    0.000000],
  [   0.000000,    0.000000,   14.897111]]

periodic: [True      , True      , False     ]
lengths:  [  3.840448,   3.840448,  14.897111]  # Ang
angles:   [ 90.000000,  90.000000, 120.000000]

symmetry:
  number of symmetries: 1
  rotations: [
    [[ 1,  0,  0], [ 0,  1,  0], [ 0,  0,  1]]]

bz sampling:
  number of bz points: 256
  number of ibz points: 256
  monkhorst-pack size: [16, 16, 1]
  monkhorst-pack shift: [0.03125, 0.03125, 0.0]
  points and weights: [
    [[ -0.43750000,  -0.43750000,   0.00000000], 0.00390625],  # 0
    [[ -0.43750000,  -0.37500000,   0.00000000], 0.00390625],  # 1
    [[ -0.43750000,  -0.31250000,   0.00000000], 0.00390625],  # 2
    [[ -0.43750000,  -0.25000000,   0.00000000], 0.00390625],  # 3
    [[ -0.43750000,  -0.18750000,   0.00000000], 0.00390625],  # 4
    [[ -0.43750000,  -0.12500000,   0.00000000], 0.00390625],  # 5
    [[ -0.43750000,  -0.06250000,   0.00000000], 0.00390625],  # 6
    [[ -0.43750000,   0.00000000,   0.00000000], 0.00390625],  # 7
    [[ -0.43750000,   0.06250000,   0.00000000], 0.00390625],  # 8
    [[ -0.43750000,   0.12500000,   0.00000000], 0.00390625],  # 9
    # ...
    [[  0.50000000,   0.50000000,   0.00000000], 0.00390625]]  # 255

plane wave coefficients: 9805
cutoff: 800.0 eV

spin-components: 4  # (non-collinear spins)
bands: 42
valence electrons: 27.0
spin-degeneracy: 1
dtype: complex128

memory:
    wave functions: 3_359_440_896  # bytes  (279_953_408 per core)

parallelization:
    kpt:    12
    domain: 1
    band:   1

density:
  components: 4
  grid points: [27 27 98]
  charge: 0.0  # |e|

potential:
  grid points: [27 27 98]

species:
  V:
    name: Vanadium
    id: 7939ce69e6bb5930668dfcf9bb1979c3
    Z: 23.0
    valence: 13
    core: 10
    charge: 0.0
    file: /zhome/86/d/1666/PAW/gpaw-setups-0.9.20000/V.LDA.gz
    compensation charges: {type: gauss,
                           rc: 0.37,
                           lmax: 2}
    cutoffs: {filter: 2.14,
              core: 0.96}
    valence states:
      #              energy  rcut
      - 3s(2.00)   -69.819   1.254
      - 4s(2.00)    -4.846   1.254
      - 3p(6.00)   -43.961   1.281
      - 4p(0.00)    -1.526   1.281
      - 3d(3.00)    -5.381   1.169
      -  d          21.830   1.169
  
    # Using partial waves for V as LCAO basis

  Br:
    name: Bromine
    id: 10a25bbcb3273ec7d8d7f6fc01d2618d
    Z: 35.0
    valence: 7
    core: 28
    charge: 0.0
    file: /zhome/86/d/1666/PAW/gpaw-setups-0.9.20000/Br.LDA.gz
    compensation charges: {type: gauss,
                           rc: 0.35,
                           lmax: 2}
    cutoffs: {filter: 1.98,
              core: 2.38}
    valence states:
      #              energy  rcut
      - 4s(2.00)   -20.306   1.111
      - 4p(5.00)    -8.003   1.111
      -  s           6.906   1.111
      -  p          19.208   1.111
      -  d           0.000   1.111
  
    # Using partial waves for Br as LCAO basis

Reference energy: -167392.690611  # eV

eigensolver:
  name: 'Davidson'
  niter: 2
  converge_bands: 'occupied'
Density mixing:
  Method: sum
  Backend: pulay
  Linear mixing parameter: 0.05
  old densities: 5
  Damping of long wavelength oscillations: 100
occupation numbers:
  Fermi-Dirac:
    width: 0.1000  # eV
  

poisson solver:
  ecut: 6400.0  # eV

xc functional:
  name: None

convergence criteria:
- Maximum [total energy] change in last 3 cyles: 0.0005 eV / valence electron
- Maximum integral of absolute [dens]ity change: 0.0001 electrons / valence electron
- Maximum integral of absolute [eigenst]ate change: 4e-08 eV^2 / valence electron
maximum number of iterations: 333

#      iter     time        total  log10-change:
#                          energy   eigst   dens
# iter:   1 01:20:07   -15.301143                  +2.6,+0.0,+0.0
# iter:   2 01:21:02   -15.692577   -0.01  -1.41   +2.6,+0.0,+0.0
# iter:   3 01:21:58   -15.620084   -0.84  -1.44   +2.6,+0.0,+0.0
# iter:   4 01:22:54   -15.640990   -1.33  -1.55   +2.7,+0.0,-0.0
# iter:   5 01:23:50   -15.694504   -1.67  -1.66   +2.7,-0.0,+0.0
# iter:   6 01:24:45   -15.675907   -2.40  -2.10   +2.7,-0.0,+0.0
# iter:   7 01:25:40   -15.671723   -2.39  -2.21   +2.7,-0.0,+0.0
# iter:   8 01:26:35   -15.668506c  -3.23  -2.47   +2.7,-0.0,+0.0
# iter:   9 01:27:30   -15.669664c  -3.34  -2.84   +2.7,-0.0,-0.0
# iter:  10 01:28:25   -15.668842c  -3.82  -2.69   +2.7,-0.0,-0.0
# iter:  11 01:29:19   -15.668523c  -4.10  -3.14   +2.7,-0.0,+0.0
# iter:  12 01:30:14   -15.668522c  -4.59  -3.67   +2.7,-0.0,-0.0
# iter:  13 01:31:09   -15.668513c  -4.84  -3.69   +2.7,-0.0,-0.0
# iter:  14 01:32:04   -15.668503c  -4.97  -3.73   +2.7,-0.0,-0.0
# iter:  15 01:32:59   -15.668505c  -5.41  -3.98   +2.7,-0.0,-0.0
# iter:  16 01:33:54   -15.668507c  -5.63  -4.05c  +2.7,-0.0,+0.0
# iter:  17 01:34:48   -15.668514c  -5.69  -4.06c  +2.7,-0.0,+0.0
# iter:  18 01:35:43   -15.668514c  -6.07  -4.14c  +2.7,-0.0,-0.0
# iter:  19 01:36:38   -15.668519c  -6.10  -4.28c  +2.7,-0.0,+0.0
# iter:  20 01:37:33   -15.668521c  -6.41  -4.75c  +2.7,-0.0,+0.0
# iter:  21 01:38:28   -15.668520c  -6.80  -4.94c  +2.7,-0.0,+0.0
# iter:  22 01:39:23   -15.668520c  -7.04  -5.07c  +2.7,-0.0,+0.0
# iter:  23 01:40:18   -15.668520c  -7.27  -5.14c  +2.7,-0.0,+0.0
# iter:  24 01:41:13   -15.668520c  -7.50c -5.41c  +2.7,-0.0,+0.0
scf_steps: 24
energies:  # eV
  coulomb:          -5.478875
  zero:              0.051326
  xc:              -16.440394
  external:          0.000000
  kinetic:           6.203157
  spinorbit:         0.000000
  entropy:          -0.007468
  total:           -15.672255
  extrapolated:    -15.668520

dipole moment: [-4.608251, -8.513313, -8.457020]  # |e|*Ang

total magnetic moment: [2.712673, -0.000772, 0.000000]

local magnetic moments: [
  [ 2.541833, -0.000032,  0.000000],  # V  0
  [ 0.006082,  0.008987, -0.000000],  # Br 1
  [-0.009310,  0.005575, -0.000000]]  # Br 2


Fermi level: -0.656 eV

kpt = [-0.438, -0.438, 0.000], weight = 0.004:
  Band      eig [eV]   occ [0-1]
     0       -65.387       1.000
   ...
    19        -5.210       1.000
    20        -5.022       1.000
    21        -4.939       1.000
    22        -4.797       1.000
    23        -4.591       1.000
    24        -1.564       1.000
    25        -1.290       0.998
    26        -1.171       0.994
    27        -0.019       0.002
    28         0.141       0.000
    29         0.653       0.000
    30         0.843       0.000
    31         1.093       0.000
    32         1.475       0.000
    33         1.605       0.000
    34         3.331       0.000
   ...
    41         5.993       0.000

kpt = [-0.438, -0.375, 0.000], weight = 0.004:
  Band      eig [eV]   occ [0-1]
     0       -65.387       1.000
   ...
    19        -5.139       1.000
    20        -4.981       1.000
    21        -4.864       1.000
    22        -4.738       1.000
    23        -4.502       1.000
    24        -1.574       1.000
    25        -1.309       0.999
    26        -1.187       0.995
    27        -0.075       0.003
    28         0.163       0.000
    29         0.712       0.000
    30         0.864       0.000
    31         1.081       0.000
    32         1.405       0.000
    33         1.581       0.000
    34         3.183       0.000
   ...
    41         6.051       0.000

kpt = [-0.438, -0.312, 0.000], weight = 0.004:
  Band      eig [eV]   occ [0-1]
     0       -65.387       1.000
   ...
    19        -5.133       1.000
    20        -5.104       1.000
    21        -4.745       1.000
    22        -4.665       1.000
    23        -4.406       1.000
    24        -1.529       1.000
    25        -1.307       0.999
    26        -1.231       0.997
    27        -0.149       0.006
    28         0.172       0.000
    29         0.769       0.000
    30         0.897       0.000
    31         0.981       0.000
    32         1.298       0.000
    33         1.564       0.000
    34         3.276       0.000
   ...
    41         5.926       0.000
(only showing first 3 out of 256 k-points)

Gap: 0.824 eV
Transition (v -> c):
  (s=0, k=247, n=26, [0.50, 0.00, 0.00]) -> (s=0, k=123, n=27, [0.00, 0.25, 0.00])
# Writing to Band_Conv/gsq-31.gpw (mode='')

---

timing:  # [seconds]
  Total: 1353.815  # ━━━━━━━━━━━━━━━━━━━━━━━━━━━━━━━━━━━━━━━━━━━━━━━━━━━━━━━━
  Init:    34.026  # ━╸
  SCF:   1318.098  # ━━━━━━━━━━━━━━━━━━━━━━━━━━━━━━━━━━━━━━━━━━━━━━━━━━━━━━╸

Max RSS: 1902.574  # MiB
