#  __  _  _
# | _ |_)|_||  |
# |__||  | ||/\| - 24.1.0

User:   s194113@n-62-28-31
Date:   Tue Apr 23 13:56:52 2024
Arch:   x86_64
Pid:    26488
CWD:    /zhome/87/8/147075/10302/10302_NM/NiI2/E_con
Python: 3.8.5
gpaw:   /zhome/87/8/147075/venv-name/gpaw/gpaw (10808453a8)
_gpaw:  /zhome/87/8/147075/venv-name/gpaw/
        _gpaw.cpython-38-x86_64-linux-gnu.so (10808453a8)
ase:    /zhome/87/8/147075/venv-name/ase/ase (version 3.23.0b1-c36115a2db)
numpy:  /zhome/87/8/147075/venv-name/lib/python3.8/site-packages/numpy (version 1.24.4)
scipy:  /zhome/87/8/147075/venv-name/lib/python3.8/site-packages/scipy (version 1.10.1)
libxc:  4.3.4
units:  Angstrom and eV
cores: 12
OpenMP: False
OMP_NUM_THREADS: 1

---
input parameters:
  kpts: 
    density: 6.0
    gamma: True
  magmoms: [[1, 0, 0], [0, 0, 0], [0, 0, 0]]
  mixer: 
    backend: 'pulay'
    beta: 0.05
    method: 'sum'
    nmaxold: 5
    weight: 100
  mode: 
    name: 'pw'
    ecut: 1000
    qspiral: array([0.02380952, 0.02380952, 0.        ])
  parallel: 
    kpt: None
    domain: 1
    band: 1
    order: 'kdb'
    stridebands: False
    augment_grids: False
    sl_auto: False
    sl_default: None
    sl_diagonalize: None
    sl_inverse_cholesky: None
    sl_lcao: None
    sl_lrtddft: None
    use_elpa: False
    elpasolver: '2stage'
    buffer_size: None
    gpu: False
  symmetry: 
    point_group: False
    time_reversal: False
  xc: 
    name: 'LDA'

#                        
#                        
#                        
#                        
#                        
#              I         
#                        
#        Ni              
#          I             
#                        
#                        
#                        
#                        
#                        

atoms: [  # symbols, positions [Ang] and initial magnetic moments
  [ Ni, [   0.000000,    0.000000,    7.513573], [ 1.000,  0.000,  0.000]], # 0
  [  I, [   1.985000,    1.146040,    9.027147], [ 0.000,  0.000,  0.000]], # 1
  [  I, [  -0.000000,    2.292081,    6.000000], [ 0.000,  0.000,  0.000]]] # 2

cell: [  # Ang
#     x            y            z
  [   3.970000,    0.000000,    0.000000],
  [  -1.985000,    3.438121,    0.000000],
  [   0.000000,   -0.000000,   15.027147]]

periodic: [True      , True      , False     ]
lengths:  [  3.970000,   3.970000,  15.027147]  # Ang
angles:   [ 90.000000,  90.000000, 120.000000]

symmetry:
  number of symmetries: 1
  rotations: [
    [[ 1,  0,  0], [ 0,  1,  0], [ 0,  0,  1]]]

bz sampling:
  number of bz points: 121
  number of ibz points: 121
  monkhorst-pack size: [11, 11, 1]
  monkhorst-pack shift: [0, 0, 0]
  points and weights: [
    [[ -0.45454545,  -0.45454545,   0.00000000], 0.00826446],  # 0
    [[ -0.45454545,  -0.36363636,   0.00000000], 0.00826446],  # 1
    [[ -0.45454545,  -0.27272727,   0.00000000], 0.00826446],  # 2
    [[ -0.45454545,  -0.18181818,   0.00000000], 0.00826446],  # 3
    [[ -0.45454545,  -0.09090909,   0.00000000], 0.00826446],  # 4
    [[ -0.45454545,   0.00000000,   0.00000000], 0.00826446],  # 5
    [[ -0.45454545,   0.09090909,   0.00000000], 0.00826446],  # 6
    [[ -0.45454545,   0.18181818,   0.00000000], 0.00826446],  # 7
    [[ -0.45454545,   0.27272727,   0.00000000], 0.00826446],  # 8
    [[ -0.45454545,   0.36363636,   0.00000000], 0.00826446],  # 9
    # ...
    [[  0.45454545,   0.45454545,   0.00000000], 0.00826446]]  # 120

plane wave coefficients: 14746
cutoff: 1000.0 eV

spin-components: 4  # (non-collinear spins)
bands: 40
valence electrons: 30.0
spin-degeneracy: 1
dtype: complex128

memory:
    wave functions: 2_283_860_480  # bytes  (190_321_706 per core)

parallelization:
    kpt:    12
    domain: 1
    band:   1

density:
  components: 4
  grid points: [ 30  30 112]
  charge: 0.0  # |e|

potential:
  grid points: [ 30  30 112]

species:
  Ni:
    name: Nickel
    id: 1802175e8de9ea26d9f4394ec1a7d564
    Z: 28.0
    valence: 16
    core: 12
    charge: 0.0
    file: /zhome/86/d/1666/PAW/gpaw-setups-0.9.20000/Ni.LDA.gz
    compensation charges: {type: gauss,
                           rc: 0.36,
                           lmax: 2}
    cutoffs: {filter: 2.14,
              core: 1.98}
    valence states:
      #              energy  rcut
      - 4s(2.00)    -5.858   1.164
      - 3p(6.00)   -71.266   1.207
      - 4p(0.00)    -1.338   1.207
      - 3d(8.00)    -9.141   1.138
      -  s          21.353   1.164
      -  d          18.071   1.138
  
    # Using partial waves for Ni as LCAO basis

  I:
    name: Iodine
    id: b559721c0c096a7b4c8fc0e0f4de5cf4
    Z: 53.0
    valence: 7
    core: 46
    charge: 0.0
    file: /zhome/86/d/1666/PAW/gpaw-setups-0.9.20000/I.LDA.gz
    compensation charges: {type: gauss,
                           rc: 0.37,
                           lmax: 2}
    cutoffs: {filter: 2.06,
              core: 2.90}
    valence states:
      #              energy  rcut
      - 5s(2.00)   -17.626   1.164
      - 5p(5.00)    -7.241   1.164
      -  s           9.585   1.164
      -  p          19.970   1.164
      -  d           0.000   1.164
  
    # Using partial waves for I as LCAO basis

Reference energy: -428067.566327  # eV

eigensolver:
  name: 'Davidson'
  niter: 2
  converge_bands: 'occupied'
Density mixing:
  Method: sum
  Backend: pulay
  Linear mixing parameter: 0.05
  old densities: 5
  Damping of long wavelength oscillations: 100
occupation numbers:
  Fermi-Dirac:
    width: 0.1000  # eV
  

poisson solver:
  ecut: 8000.0  # eV

xc functional:
  name: None

convergence criteria:
- Maximum [total energy] change in last 3 cyles: 0.0005 eV / valence electron
- Maximum integral of absolute [dens]ity change: 0.0001 electrons / valence electron
- Maximum integral of absolute [eigenst]ate change: 4e-08 eV^2 / valence electron
maximum number of iterations: 333

#      iter     time        total  log10-change:
#                          energy   eigst   dens
# iter:   1 13:57:44   -13.983437                  +1.0,+0.0,+0.0
# iter:   2 13:58:20   -12.698043   -0.51  -1.31   +1.0,+0.0,+0.0
# iter:   3 13:58:55   -12.233085   -0.71  -1.45   +1.2,+0.0,+0.0
# iter:   4 13:59:30   -12.281368   -1.28  -1.68   +1.4,+0.0,+0.0
# iter:   5 14:00:05   -12.558424   -1.41  -1.65   +1.4,+0.0,+0.0
# iter:   6 14:00:40   -12.285577   -1.65  -1.72   +1.5,+0.0,+0.0
# iter:   7 14:01:15   -12.276294   -2.06  -2.17   +1.5,+0.0,+0.0
# iter:   8 14:01:50   -12.282927c  -2.35  -2.33   +1.6,+0.0,+0.0
# iter:   9 14:02:25   -12.282272c  -2.50  -2.48   +1.7,+0.0,-0.0
# iter:  10 14:03:00   -12.282246c  -2.82  -2.97   +1.7,+0.0,+0.0
# iter:  11 14:03:35   -12.287152c  -3.00  -2.90   +1.7,+0.0,-0.0
# iter:  12 14:04:10   -12.288054c  -3.20  -3.17   +1.7,+0.0,-0.0
# iter:  13 14:04:45   -12.291165c  -3.38  -3.08   +1.7,+0.0,-0.0
# iter:  14 14:05:20   -12.292169c  -3.56  -2.93   +1.7,+0.0,+0.0
# iter:  15 14:05:55   -12.289007c  -3.49  -2.84   +1.7,+0.0,-0.0
# iter:  16 14:06:30   -12.288995c  -3.93  -3.36   +1.7,+0.0,-0.0
# iter:  17 14:07:05   -12.290515c  -4.16  -3.44   +1.8,+0.0,-0.0
# iter:  18 14:07:40   -12.290427c  -4.32  -3.37   +1.8,+0.0,-0.0
# iter:  19 14:08:15   -12.290431c  -4.55  -3.66   +1.8,+0.0,-0.0
# iter:  20 14:08:50   -12.290025c  -4.32  -3.70   +1.8,+0.0,-0.0
# iter:  21 14:09:25   -12.290026c  -4.88  -3.29   +1.8,+0.0,-0.0
# iter:  22 14:10:00   -12.290082c  -5.01  -3.31   +1.8,+0.0,-0.0
# iter:  23 14:10:35   -12.290002c  -5.13  -3.45   +1.8,+0.0,-0.0
# iter:  24 14:11:10   -12.290343c  -4.94  -3.30   +1.8,+0.0,-0.0
# iter:  25 14:11:45   -12.290577c  -5.36  -3.71   +1.8,+0.0,-0.0
# iter:  26 14:12:19   -12.291498c  -4.49  -3.73   +1.8,+0.0,-0.0
# iter:  27 14:12:54   -12.292265c  -5.30  -3.43   +1.8,+0.0,+0.0
# iter:  28 14:13:29   -12.292765c  -5.34  -4.03c  +1.8,+0.0,+0.0
# iter:  29 14:14:04   -12.292424c  -5.71  -3.88   +1.8,+0.0,+0.0
# iter:  30 14:14:39   -12.292686c  -6.22  -4.27c  +1.8,+0.0,+0.0
# iter:  31 14:15:13   -12.292465c  -6.28  -4.20c  +1.8,+0.0,+0.0
# iter:  32 14:15:48   -12.292461c  -6.74  -4.46c  +1.8,+0.0,+0.0
# iter:  33 14:16:23   -12.292515c  -7.06  -4.69c  +1.8,+0.0,+0.0
# iter:  34 14:16:58   -12.292470c  -7.40  -5.03c  +1.8,+0.0,+0.0
# iter:  35 14:17:33   -12.292470c  -7.63c -5.14c  +1.8,+0.0,+0.0
scf_steps: 35
energies:  # eV
  coulomb:          -8.040334
  zero:              0.066601
  xc:              -14.956168
  external:          0.000000
  kinetic:          10.663826
  spinorbit:         0.000000
  entropy:          -0.052790
  total:           -12.318865
  extrapolated:    -12.292470

dipole moment: [-4.299775, -7.447287, -6.375359]  # |e|*Ang

total magnetic moment: [1.811239, 0.007488, 0.000000]

local magnetic moments: [
  [ 1.146373,  0.000000,  0.000000],  # Ni 0
  [ 0.180202, -0.027163,  0.000000],  # I  1
  [ 0.180202, -0.027159,  0.000000]]  # I  2


Fermi level: -1.183 eV

kpt = [-0.455, -0.455, 0.000], weight = 0.008:
  Band      eig [eV]   occ [0-1]
     0       -64.977       1.000
   ...
    22        -3.137       1.000
    23        -3.008       1.000
    24        -2.904       1.000
    25        -2.294       1.000
    26        -2.163       1.000
    27        -2.131       1.000
    28        -1.616       0.987
    29        -1.581       0.982
    30        -0.675       0.006
    31        -0.671       0.006
    32         1.677       0.000
    33         2.005       0.000
    34         3.847       0.000
    35         4.247       0.000
    36         4.604       0.000
    37         4.677       0.000
   ...
    39         5.289       0.000

kpt = [-0.455, -0.364, 0.000], weight = 0.008:
  Band      eig [eV]   occ [0-1]
     0       -64.977       1.000
   ...
    22        -3.073       1.000
    23        -2.947       1.000
    24        -2.793       1.000
    25        -2.247       1.000
    26        -2.140       1.000
    27        -2.044       1.000
    28        -1.904       0.999
    29        -1.656       0.991
    30        -0.935       0.077
    31        -0.709       0.009
    32         2.195       0.000
    33         2.506       0.000
    34         4.458       0.000
    35         4.576       0.000
    36         4.919       0.000
    37         5.048       0.000
   ...
    39         5.350       0.000

kpt = [-0.455, -0.273, 0.000], weight = 0.008:
  Band      eig [eV]   occ [0-1]
     0       -64.977       1.000
   ...
    22        -3.060       1.000
    23        -2.918       1.000
    24        -2.734       1.000
    25        -2.239       1.000
    26        -2.131       1.000
    27        -2.066       1.000
    28        -1.982       1.000
    29        -1.685       0.993
    30        -1.049       0.206
    31        -0.733       0.011
    32         2.517       0.000
    33         2.740       0.000
    34         4.262       0.000
    35         4.427       0.000
    36         5.315       0.000
    37         5.451       0.000
   ...
    39         5.917       0.000
(only showing first 3 out of 121 k-points)

No gap
# Writing to gsq-29.gpw (mode='')

---

timing:  # [seconds]
  Total: 1242.694  # ━━━━━━━━━━━━━━━━━━━━━━━━━━━━━━━━━━━━━━━━━━━━━━━━━━━━━━━━
  Init:    20.536  # ━
  SCF:   1220.569  # ━━━━━━━━━━━━━━━━━━━━━━━━━━━━━━━━━━━━━━━━━━━━━━━━━━━━━━━

Max RSS: 1658.906  # MiB
