#  __  _  _
# | _ |_)|_||  |
# |__||  | ||/\| - 24.1.0

User:   s194113@n-62-28-31
Date:   Tue Apr 23 01:59:46 2024
Arch:   x86_64
Pid:    26488
CWD:    /zhome/87/8/147075/10302/10302_NM/NiI2/E_con
Python: 3.8.5
gpaw:   /zhome/87/8/147075/venv-name/gpaw/gpaw (10808453a8)
_gpaw:  /zhome/87/8/147075/venv-name/gpaw/
        _gpaw.cpython-38-x86_64-linux-gnu.so (10808453a8)
ase:    /zhome/87/8/147075/venv-name/ase/ase (version 3.23.0b1-c36115a2db)
numpy:  /zhome/87/8/147075/venv-name/lib/python3.8/site-packages/numpy (version 1.24.4)
scipy:  /zhome/87/8/147075/venv-name/lib/python3.8/site-packages/scipy (version 1.10.1)
libxc:  4.3.4
units:  Angstrom and eV
cores: 12
OpenMP: False
OMP_NUM_THREADS: 1

---
input parameters:
  kpts: 
    density: 6.0
    gamma: True
  magmoms: [[1, 0, 0], [0, 0, 0], [0, 0, 0]]
  mixer: 
    backend: 'pulay'
    beta: 0.05
    method: 'sum'
    nmaxold: 5
    weight: 100
  mode: 
    name: 'pw'
    ecut: 1000
    qspiral: array([0.15, 0.  , 0.  ])
  parallel: 
    kpt: None
    domain: 1
    band: 1
    order: 'kdb'
    stridebands: False
    augment_grids: False
    sl_auto: False
    sl_default: None
    sl_diagonalize: None
    sl_inverse_cholesky: None
    sl_lcao: None
    sl_lrtddft: None
    use_elpa: False
    elpasolver: '2stage'
    buffer_size: None
    gpu: False
  symmetry: 
    point_group: False
    time_reversal: False
  xc: 
    name: 'LDA'

#                        
#                        
#                        
#                        
#                        
#              I         
#                        
#        Ni              
#          I             
#                        
#                        
#                        
#                        
#                        

atoms: [  # symbols, positions [Ang] and initial magnetic moments
  [ Ni, [   0.000000,    0.000000,    7.513573], [ 1.000,  0.000,  0.000]], # 0
  [  I, [   1.985000,    1.146040,    9.027147], [ 0.000,  0.000,  0.000]], # 1
  [  I, [  -0.000000,    2.292081,    6.000000], [ 0.000,  0.000,  0.000]]] # 2

cell: [  # Ang
#     x            y            z
  [   3.970000,    0.000000,    0.000000],
  [  -1.985000,    3.438121,    0.000000],
  [   0.000000,   -0.000000,   15.027147]]

periodic: [True      , True      , False     ]
lengths:  [  3.970000,   3.970000,  15.027147]  # Ang
angles:   [ 90.000000,  90.000000, 120.000000]

symmetry:
  number of symmetries: 1
  rotations: [
    [[ 1,  0,  0], [ 0,  1,  0], [ 0,  0,  1]]]

bz sampling:
  number of bz points: 121
  number of ibz points: 121
  monkhorst-pack size: [11, 11, 1]
  monkhorst-pack shift: [0, 0, 0]
  points and weights: [
    [[ -0.45454545,  -0.45454545,   0.00000000], 0.00826446],  # 0
    [[ -0.45454545,  -0.36363636,   0.00000000], 0.00826446],  # 1
    [[ -0.45454545,  -0.27272727,   0.00000000], 0.00826446],  # 2
    [[ -0.45454545,  -0.18181818,   0.00000000], 0.00826446],  # 3
    [[ -0.45454545,  -0.09090909,   0.00000000], 0.00826446],  # 4
    [[ -0.45454545,   0.00000000,   0.00000000], 0.00826446],  # 5
    [[ -0.45454545,   0.09090909,   0.00000000], 0.00826446],  # 6
    [[ -0.45454545,   0.18181818,   0.00000000], 0.00826446],  # 7
    [[ -0.45454545,   0.27272727,   0.00000000], 0.00826446],  # 8
    [[ -0.45454545,   0.36363636,   0.00000000], 0.00826446],  # 9
    # ...
    [[  0.45454545,   0.45454545,   0.00000000], 0.00826446]]  # 120

plane wave coefficients: 14746
cutoff: 1000.0 eV

spin-components: 4  # (non-collinear spins)
bands: 40
valence electrons: 30.0
spin-degeneracy: 1
dtype: complex128

memory:
    wave functions: 2_283_860_480  # bytes  (190_321_706 per core)

parallelization:
    kpt:    12
    domain: 1
    band:   1

density:
  components: 4
  grid points: [ 30  30 112]
  charge: 0.0  # |e|

potential:
  grid points: [ 30  30 112]

species:
  Ni:
    name: Nickel
    id: 1802175e8de9ea26d9f4394ec1a7d564
    Z: 28.0
    valence: 16
    core: 12
    charge: 0.0
    file: /zhome/86/d/1666/PAW/gpaw-setups-0.9.20000/Ni.LDA.gz
    compensation charges: {type: gauss,
                           rc: 0.36,
                           lmax: 2}
    cutoffs: {filter: 2.14,
              core: 1.98}
    valence states:
      #              energy  rcut
      - 4s(2.00)    -5.858   1.164
      - 3p(6.00)   -71.266   1.207
      - 4p(0.00)    -1.338   1.207
      - 3d(8.00)    -9.141   1.138
      -  s          21.353   1.164
      -  d          18.071   1.138
  
    # Using partial waves for Ni as LCAO basis

  I:
    name: Iodine
    id: b559721c0c096a7b4c8fc0e0f4de5cf4
    Z: 53.0
    valence: 7
    core: 46
    charge: 0.0
    file: /zhome/86/d/1666/PAW/gpaw-setups-0.9.20000/I.LDA.gz
    compensation charges: {type: gauss,
                           rc: 0.37,
                           lmax: 2}
    cutoffs: {filter: 2.06,
              core: 2.90}
    valence states:
      #              energy  rcut
      - 5s(2.00)   -17.626   1.164
      - 5p(5.00)    -7.241   1.164
      -  s           9.585   1.164
      -  p          19.970   1.164
      -  d           0.000   1.164
  
    # Using partial waves for I as LCAO basis

Reference energy: -428067.566327  # eV

eigensolver:
  name: 'Davidson'
  niter: 2
  converge_bands: 'occupied'
Density mixing:
  Method: sum
  Backend: pulay
  Linear mixing parameter: 0.05
  old densities: 5
  Damping of long wavelength oscillations: 100
occupation numbers:
  Fermi-Dirac:
    width: 0.1000  # eV
  

poisson solver:
  ecut: 8000.0  # eV

xc functional:
  name: None

convergence criteria:
- Maximum [total energy] change in last 3 cyles: 0.0005 eV / valence electron
- Maximum integral of absolute [dens]ity change: 0.0001 electrons / valence electron
- Maximum integral of absolute [eigenst]ate change: 4e-08 eV^2 / valence electron
maximum number of iterations: 333

#      iter     time        total  log10-change:
#                          energy   eigst   dens
# iter:   1 02:00:38   -13.904472                  +1.0,+0.0,+0.0
# iter:   2 02:01:13   -12.694778   -0.40  -1.31   +1.0,+0.0,-0.0
# iter:   3 02:01:47   -12.239929   -0.70  -1.45   +1.2,+0.0,-0.0
# iter:   4 02:02:22   -12.295642   -1.41  -1.68   +1.3,+0.0,+0.0
# iter:   5 02:02:56   -12.541884   -1.51  -1.66   +1.4,+0.0,-0.0
# iter:   6 02:03:31   -12.317384   -1.77  -1.75   +1.5,+0.0,-0.0
# iter:   7 02:04:05   -12.307992   -2.17  -2.15   +1.5,+0.0,+0.0
# iter:   8 02:04:39   -12.302708c  -2.37  -2.30   +1.6,+0.0,+0.0
# iter:   9 02:05:14   -12.304641c  -2.63  -2.72   +1.6,+0.0,-0.0
# iter:  10 02:05:48   -12.305754c  -2.90  -2.98   +1.6,+0.0,+0.0
# iter:  11 02:06:23   -12.308822c  -2.92  -2.99   +1.7,+0.0,+0.0
# iter:  12 02:06:58   -12.309276c  -3.27  -2.97   +1.7,+0.0,+0.0
# iter:  13 02:07:32   -12.309345c  -3.45  -3.50   +1.7,+0.0,+0.0
# iter:  14 02:08:07   -12.309236c  -3.62  -3.61   +1.7,+0.0,-0.0
# iter:  15 02:08:42   -12.309481c  -3.77  -3.54   +1.7,+0.0,+0.0
# iter:  16 02:09:17   -12.309436c  -3.96  -3.69   +1.7,+0.0,+0.0
# iter:  17 02:09:51   -12.309582c  -4.10  -3.75   +1.7,+0.0,+0.0
# iter:  18 02:10:25   -12.309782c  -4.27  -3.82   +1.7,+0.0,+0.0
# iter:  19 02:11:00   -12.310204c  -4.42  -3.87   +1.7,+0.0,+0.0
# iter:  20 02:11:35   -12.310320c  -4.57  -3.93   +1.7,+0.0,+0.0
# iter:  21 02:12:09   -12.310360c  -4.73  -3.95   +1.7,+0.0,+0.0
# iter:  22 02:12:44   -12.310386c  -4.88  -3.97   +1.7,+0.0,-0.0
# iter:  23 02:13:18   -12.310398c  -5.03  -4.00c  +1.7,+0.0,+0.0
# iter:  24 02:13:53   -12.311089c  -4.97  -4.00c  +1.7,+0.0,+0.0
# iter:  25 02:14:27   -12.311212c  -5.28  -3.92   +1.7,+0.0,+0.0
# iter:  26 02:15:01   -12.311198c  -5.50  -4.03c  +1.7,+0.0,+0.0
# iter:  27 02:15:36   -12.311249c  -5.65  -4.22c  +1.7,+0.0,+0.0
# iter:  28 02:16:11   -12.311332c  -5.79  -4.39c  +1.7,+0.0,+0.0
# iter:  29 02:16:45   -12.311375c  -5.97  -4.61c  +1.7,+0.0,+0.0
# iter:  30 02:17:19   -12.311385c  -6.11  -4.65c  +1.7,+0.0,+0.0
# iter:  31 02:17:54   -12.311371c  -6.27  -4.82c  +1.7,+0.0,+0.0
# iter:  32 02:18:29   -12.311365c  -6.42  -4.91c  +1.7,+0.0,+0.0
# iter:  33 02:19:03   -12.311355c  -6.56  -4.96c  +1.7,+0.0,+0.0
# iter:  34 02:19:37   -12.311354c  -6.72  -5.11c  +1.7,+0.0,+0.0
# iter:  35 02:20:12   -12.311361c  -6.87  -5.17c  +1.7,+0.0,+0.0
# iter:  36 02:20:46   -12.311360c  -7.02  -5.21c  +1.7,+0.0,+0.0
# iter:  37 02:21:21   -12.311360c  -7.16  -5.22c  +1.7,+0.0,+0.0
# iter:  38 02:21:55   -12.311361c  -7.30  -5.24c  +1.7,+0.0,+0.0
# iter:  39 02:22:30   -12.311360c  -7.45c -5.25c  +1.7,+0.0,+0.0
scf_steps: 39
energies:  # eV
  coulomb:          -7.801040
  zero:              0.067056
  xc:              -14.924965
  external:          0.000000
  kinetic:          10.368326
  spinorbit:         0.000000
  entropy:          -0.041477
  total:           -12.332098
  extrapolated:    -12.311360

dipole moment: [-4.210211, -7.277966, -5.598131]  # |e|*Ang

total magnetic moment: [1.715010, 0.020204, 0.000000]

local magnetic moments: [
  [ 1.140747, -0.000000,  0.000000],  # Ni 0
  [ 0.132350, -0.097612,  0.000000],  # I  1
  [ 0.156763, -0.049698,  0.000000]]  # I  2


Fermi level: -1.184 eV

kpt = [-0.455, -0.455, 0.000], weight = 0.008:
  Band      eig [eV]   occ [0-1]
     0       -64.968       1.000
   ...
    22        -3.119       1.000
    23        -2.983       1.000
    24        -2.894       1.000
    25        -2.291       1.000
    26        -2.159       1.000
    27        -2.118       1.000
    28        -1.671       0.992
    29        -1.601       0.985
    30        -0.706       0.008
    31        -0.665       0.006
    32         1.590       0.000
    33         2.282       0.000
    34         3.643       0.000
    35         4.463       0.000
    36         4.542       0.000
    37         4.786       0.000
   ...
    39         5.134       0.000

kpt = [-0.455, -0.364, 0.000], weight = 0.008:
  Band      eig [eV]   occ [0-1]
     0       -64.968       1.000
   ...
    22        -3.045       1.000
    23        -2.931       1.000
    24        -2.805       1.000
    25        -2.262       1.000
    26        -2.135       1.000
    27        -2.065       1.000
    28        -1.820       0.998
    29        -1.690       0.994
    30        -0.875       0.044
    31        -0.740       0.012
    32         2.017       0.000
    33         2.572       0.000
    34         4.158       0.000
    35         4.595       0.000
    36         4.746       0.000
    37         4.953       0.000
   ...
    39         5.685       0.000

kpt = [-0.455, -0.273, 0.000], weight = 0.008:
  Band      eig [eV]   occ [0-1]
     0       -64.968       1.000
   ...
    22        -3.009       1.000
    23        -2.917       1.000
    24        -2.727       1.000
    25        -2.258       1.000
    26        -2.137       1.000
    27        -2.043       1.000
    28        -1.933       0.999
    29        -1.703       0.994
    30        -1.018       0.160
    31        -0.758       0.014
    32         2.507       0.000
    33         2.712       0.000
    34         4.152       0.000
    35         4.728       0.000
    36         5.011       0.000
    37         5.083       0.000
   ...
    39         5.774       0.000
(only showing first 3 out of 121 k-points)

No gap
# Writing to gsq-03.gpw (mode='')

---

timing:  # [seconds]
  Total: 1364.338  # ━━━━━━━━━━━━━━━━━━━━━━━━━━━━━━━━━━━━━━━━━━━━━━━━━━━━━━━━
  Init:    20.614  # ━
  SCF:   1343.309  # ━━━━━━━━━━━━━━━━━━━━━━━━━━━━━━━━━━━━━━━━━━━━━━━━━━━━━━━

Max RSS: 1057.555  # MiB
