#  __  _  _
# | _ |_)|_||  |
# |__||  | ||/\| - 24.1.0

User:   s194113@n-62-28-31
Date:   Tue Apr 23 02:47:13 2024
Arch:   x86_64
Pid:    26488
CWD:    /zhome/87/8/147075/10302/10302_NM/NiI2/E_con
Python: 3.8.5
gpaw:   /zhome/87/8/147075/venv-name/gpaw/gpaw (10808453a8)
_gpaw:  /zhome/87/8/147075/venv-name/gpaw/
        _gpaw.cpython-38-x86_64-linux-gnu.so (10808453a8)
ase:    /zhome/87/8/147075/venv-name/ase/ase (version 3.23.0b1-c36115a2db)
numpy:  /zhome/87/8/147075/venv-name/lib/python3.8/site-packages/numpy (version 1.24.4)
scipy:  /zhome/87/8/147075/venv-name/lib/python3.8/site-packages/scipy (version 1.10.1)
libxc:  4.3.4
units:  Angstrom and eV
cores: 12
OpenMP: False
OMP_NUM_THREADS: 1

---
input parameters:
  kpts: 
    density: 6.0
    gamma: True
  magmoms: [[1, 0, 0], [0, 0, 0], [0, 0, 0]]
  mixer: 
    backend: 'pulay'
    beta: 0.05
    method: 'sum'
    nmaxold: 5
    weight: 100
  mode: 
    name: 'pw'
    ecut: 1000
    qspiral: array([0.25, 0.  , 0.  ])
  parallel: 
    kpt: None
    domain: 1
    band: 1
    order: 'kdb'
    stridebands: False
    augment_grids: False
    sl_auto: False
    sl_default: None
    sl_diagonalize: None
    sl_inverse_cholesky: None
    sl_lcao: None
    sl_lrtddft: None
    use_elpa: False
    elpasolver: '2stage'
    buffer_size: None
    gpu: False
  symmetry: 
    point_group: False
    time_reversal: False
  xc: 
    name: 'LDA'

#                        
#                        
#                        
#                        
#                        
#              I         
#                        
#        Ni              
#          I             
#                        
#                        
#                        
#                        
#                        

atoms: [  # symbols, positions [Ang] and initial magnetic moments
  [ Ni, [   0.000000,    0.000000,    7.513573], [ 1.000,  0.000,  0.000]], # 0
  [  I, [   1.985000,    1.146040,    9.027147], [ 0.000,  0.000,  0.000]], # 1
  [  I, [  -0.000000,    2.292081,    6.000000], [ 0.000,  0.000,  0.000]]] # 2

cell: [  # Ang
#     x            y            z
  [   3.970000,    0.000000,    0.000000],
  [  -1.985000,    3.438121,    0.000000],
  [   0.000000,   -0.000000,   15.027147]]

periodic: [True      , True      , False     ]
lengths:  [  3.970000,   3.970000,  15.027147]  # Ang
angles:   [ 90.000000,  90.000000, 120.000000]

symmetry:
  number of symmetries: 1
  rotations: [
    [[ 1,  0,  0], [ 0,  1,  0], [ 0,  0,  1]]]

bz sampling:
  number of bz points: 121
  number of ibz points: 121
  monkhorst-pack size: [11, 11, 1]
  monkhorst-pack shift: [0, 0, 0]
  points and weights: [
    [[ -0.45454545,  -0.45454545,   0.00000000], 0.00826446],  # 0
    [[ -0.45454545,  -0.36363636,   0.00000000], 0.00826446],  # 1
    [[ -0.45454545,  -0.27272727,   0.00000000], 0.00826446],  # 2
    [[ -0.45454545,  -0.18181818,   0.00000000], 0.00826446],  # 3
    [[ -0.45454545,  -0.09090909,   0.00000000], 0.00826446],  # 4
    [[ -0.45454545,   0.00000000,   0.00000000], 0.00826446],  # 5
    [[ -0.45454545,   0.09090909,   0.00000000], 0.00826446],  # 6
    [[ -0.45454545,   0.18181818,   0.00000000], 0.00826446],  # 7
    [[ -0.45454545,   0.27272727,   0.00000000], 0.00826446],  # 8
    [[ -0.45454545,   0.36363636,   0.00000000], 0.00826446],  # 9
    # ...
    [[  0.45454545,   0.45454545,   0.00000000], 0.00826446]]  # 120

plane wave coefficients: 14746
cutoff: 1000.0 eV

spin-components: 4  # (non-collinear spins)
bands: 40
valence electrons: 30.0
spin-degeneracy: 1
dtype: complex128

memory:
    wave functions: 2_283_860_480  # bytes  (190_321_706 per core)

parallelization:
    kpt:    12
    domain: 1
    band:   1

density:
  components: 4
  grid points: [ 30  30 112]
  charge: 0.0  # |e|

potential:
  grid points: [ 30  30 112]

species:
  Ni:
    name: Nickel
    id: 1802175e8de9ea26d9f4394ec1a7d564
    Z: 28.0
    valence: 16
    core: 12
    charge: 0.0
    file: /zhome/86/d/1666/PAW/gpaw-setups-0.9.20000/Ni.LDA.gz
    compensation charges: {type: gauss,
                           rc: 0.36,
                           lmax: 2}
    cutoffs: {filter: 2.14,
              core: 1.98}
    valence states:
      #              energy  rcut
      - 4s(2.00)    -5.858   1.164
      - 3p(6.00)   -71.266   1.207
      - 4p(0.00)    -1.338   1.207
      - 3d(8.00)    -9.141   1.138
      -  s          21.353   1.164
      -  d          18.071   1.138
  
    # Using partial waves for Ni as LCAO basis

  I:
    name: Iodine
    id: b559721c0c096a7b4c8fc0e0f4de5cf4
    Z: 53.0
    valence: 7
    core: 46
    charge: 0.0
    file: /zhome/86/d/1666/PAW/gpaw-setups-0.9.20000/I.LDA.gz
    compensation charges: {type: gauss,
                           rc: 0.37,
                           lmax: 2}
    cutoffs: {filter: 2.06,
              core: 2.90}
    valence states:
      #              energy  rcut
      - 5s(2.00)   -17.626   1.164
      - 5p(5.00)    -7.241   1.164
      -  s           9.585   1.164
      -  p          19.970   1.164
      -  d           0.000   1.164
  
    # Using partial waves for I as LCAO basis

Reference energy: -428067.566327  # eV

eigensolver:
  name: 'Davidson'
  niter: 2
  converge_bands: 'occupied'
Density mixing:
  Method: sum
  Backend: pulay
  Linear mixing parameter: 0.05
  old densities: 5
  Damping of long wavelength oscillations: 100
occupation numbers:
  Fermi-Dirac:
    width: 0.1000  # eV
  

poisson solver:
  ecut: 8000.0  # eV

xc functional:
  name: None

convergence criteria:
- Maximum [total energy] change in last 3 cyles: 0.0005 eV / valence electron
- Maximum integral of absolute [dens]ity change: 0.0001 electrons / valence electron
- Maximum integral of absolute [eigenst]ate change: 4e-08 eV^2 / valence electron
maximum number of iterations: 333

#      iter     time        total  log10-change:
#                          energy   eigst   dens
# iter:   1 02:48:06   -13.755864                  +1.0,+0.0,+0.0
# iter:   2 02:48:40   -12.673788   -0.15  -1.31   +1.0,+0.0,+0.0
# iter:   3 02:49:15   -12.237659   -0.58  -1.45   +1.1,+0.0,+0.0
# iter:   4 02:49:50   -12.315086   -1.25  -1.68   +1.2,+0.0,-0.0
# iter:   5 02:50:24   -12.523294   -1.42  -1.65   +1.3,+0.0,-0.0
# iter:   6 02:50:58   -12.321895   -1.65  -1.78   +1.3,+0.0,-0.0
# iter:   7 02:51:33   -12.309196   -1.95  -2.16   +1.4,+0.0,+0.0
# iter:   8 02:52:08   -12.306181   -2.17  -2.33   +1.4,+0.0,-0.0
# iter:   9 02:52:42   -12.307109c  -2.37  -2.69   +1.5,+0.0,+0.0
# iter:  10 02:53:17   -12.307603c  -2.60  -3.00   +1.5,+0.0,-0.0
# iter:  11 02:53:51   -12.311051c  -2.77  -2.92   +1.5,+0.0,+0.0
# iter:  12 02:54:26   -12.311736c  -2.91  -3.34   +1.5,+0.0,+0.0
# iter:  13 02:55:00   -12.311838c  -3.10  -3.52   +1.5,+0.0,+0.0
# iter:  14 02:55:34   -12.311886c  -3.26  -3.73   +1.5,+0.0,+0.0
# iter:  15 02:56:08   -12.312167c  -3.41  -3.76   +1.5,+0.0,+0.0
# iter:  16 02:56:43   -12.312391c  -3.56  -3.76   +1.5,+0.0,+0.0
# iter:  17 02:57:17   -12.312344c  -3.71  -3.82   +1.5,+0.0,+0.0
# iter:  18 02:57:52   -12.312659c  -3.85  -3.85   +1.5,+0.0,+0.0
# iter:  19 02:58:26   -12.312692c  -4.00  -3.92   +1.5,+0.0,+0.0
# iter:  20 02:59:01   -12.312637c  -4.14  -3.89   +1.5,+0.0,+0.0
# iter:  21 02:59:35   -12.312927c  -4.28  -3.91   +1.5,+0.0,+0.0
# iter:  22 03:00:09   -12.313197c  -4.41  -4.03c  +1.5,+0.0,+0.0
# iter:  23 03:00:44   -12.313278c  -4.56  -4.18c  +1.5,+0.0,+0.0
# iter:  24 03:01:18   -12.313491c  -4.70  -4.21c  +1.5,+0.0,+0.0
# iter:  25 03:01:53   -12.313481c  -4.85  -4.24c  +1.6,+0.0,+0.0
# iter:  26 03:02:28   -12.313538c  -5.00  -4.25c  +1.6,+0.0,+0.0
# iter:  27 03:03:03   -12.313560c  -5.15  -4.44c  +1.6,+0.0,+0.0
# iter:  28 03:03:38   -12.313515c  -5.29  -4.53c  +1.6,+0.0,+0.0
# iter:  29 03:04:12   -12.313467c  -5.43  -4.63c  +1.5,+0.0,+0.0
# iter:  30 03:04:47   -12.313468c  -5.57  -4.63c  +1.5,+0.0,+0.0
# iter:  31 03:05:21   -12.313492c  -5.70  -4.67c  +1.6,+0.0,+0.0
# iter:  32 03:05:56   -12.313493c  -5.84  -4.94c  +1.6,+0.0,+0.0
# iter:  33 03:06:30   -12.313504c  -5.98  -5.02c  +1.6,+0.0,+0.0
# iter:  34 03:07:05   -12.313516c  -6.12  -5.06c  +1.6,+0.0,+0.0
# iter:  35 03:07:40   -12.313526c  -6.26  -5.10c  +1.6,+0.0,+0.0
# iter:  36 03:08:14   -12.313528c  -6.40  -5.22c  +1.6,+0.0,+0.0
# iter:  37 03:08:48   -12.313526c  -6.56  -5.41c  +1.6,+0.0,+0.0
# iter:  38 03:09:23   -12.313527c  -6.70  -5.62c  +1.6,+0.0,+0.0
# iter:  39 03:09:58   -12.313534c  -6.85  -5.64c  +1.6,+0.0,+0.0
# iter:  40 03:10:32   -12.313535c  -7.00  -5.73c  +1.6,+0.0,+0.0
# iter:  41 03:11:07   -12.313534c  -7.15  -5.88c  +1.6,+0.0,+0.0
# iter:  42 03:11:42   -12.313535c  -7.30  -5.84c  +1.6,+0.0,+0.0
# iter:  43 03:12:16   -12.313534c  -7.45c -6.08c  +1.6,+0.0,+0.0
scf_steps: 43
energies:  # eV
  coulomb:          -7.654011
  zero:              0.067366
  xc:              -14.896223
  external:          0.000000
  kinetic:          10.188964
  spinorbit:         0.000000
  entropy:          -0.039260
  total:           -12.333165
  extrapolated:    -12.313534

dipole moment: [-4.039792, -7.001849, -4.283103]  # |e|*Ang

total magnetic moment: [1.552140, 0.024173, 0.000000]

local magnetic moments: [
  [ 1.128759,  0.000000,  0.000000],  # Ni 0
  [ 0.059257, -0.118310,  0.000000],  # I  1
  [ 0.118310, -0.059257,  0.000000]]  # I  2


Fermi level: -1.175 eV

kpt = [-0.455, -0.455, 0.000], weight = 0.008:
  Band      eig [eV]   occ [0-1]
     0       -64.955       1.000
   ...
    22        -3.061       1.000
    23        -2.972       1.000
    24        -2.829       1.000
    25        -2.289       1.000
    26        -2.164       1.000
    27        -2.096       1.000
    28        -1.763       0.997
    29        -1.597       0.985
    30        -0.784       0.020
    31        -0.684       0.007
    32         1.664       0.000
    33         2.522       0.000
    34         3.711       0.000
    35         4.416       0.000
    36         4.435       0.000
    37         4.913       0.000
   ...
    39         5.618       0.000

kpt = [-0.455, -0.364, 0.000], weight = 0.008:
  Band      eig [eV]   occ [0-1]
     0       -64.955       1.000
   ...
    22        -3.030       1.000
    23        -2.882       1.000
    24        -2.827       1.000
    25        -2.304       1.000
    26        -2.128       1.000
    27        -2.090       1.000
    28        -1.729       0.996
    29        -1.706       0.995
    30        -0.844       0.035
    31        -0.744       0.013
    32         1.865       0.000
    33         2.597       0.000
    34         3.860       0.000
    35         4.415       0.000
    36         4.774       0.000
    37         5.013       0.000
   ...
    39         5.588       0.000

kpt = [-0.455, -0.273, 0.000], weight = 0.008:
  Band      eig [eV]   occ [0-1]
     0       -64.955       1.000
   ...
    22        -2.960       1.000
    23        -2.896       1.000
    24        -2.721       1.000
    25        -2.298       1.000
    26        -2.133       1.000
    27        -2.050       1.000
    28        -1.846       0.999
    29        -1.693       0.994
    30        -0.981       0.126
    31        -0.784       0.020
    32         2.477       0.000
    33         2.641       0.000
    34         4.157       0.000
    35         4.621       0.000
    36         4.696       0.000
    37         5.118       0.000
   ...
    39         5.528       0.000
(only showing first 3 out of 121 k-points)

Gap: 0.219 eV
Transition (v -> c):
  (s=0, k=49, n=29, [-0.09, 0.00, 0.00]) -> (s=0, k=118, n=30, [0.45, 0.27, 0.00])
# Writing to gsq-05.gpw (mode='')

