#  __  _  _
# | _ |_)|_||  |
# |__||  | ||/\| - 24.1.0

User:   s194113@n-62-28-31
Date:   Tue Apr 23 12:47:26 2024
Arch:   x86_64
Pid:    26488
CWD:    /zhome/87/8/147075/10302/10302_NM/NiI2/E_con
Python: 3.8.5
gpaw:   /zhome/87/8/147075/venv-name/gpaw/gpaw (10808453a8)
_gpaw:  /zhome/87/8/147075/venv-name/gpaw/
        _gpaw.cpython-38-x86_64-linux-gnu.so (10808453a8)
ase:    /zhome/87/8/147075/venv-name/ase/ase (version 3.23.0b1-c36115a2db)
numpy:  /zhome/87/8/147075/venv-name/lib/python3.8/site-packages/numpy (version 1.24.4)
scipy:  /zhome/87/8/147075/venv-name/lib/python3.8/site-packages/scipy (version 1.10.1)
libxc:  4.3.4
units:  Angstrom and eV
cores: 12
OpenMP: False
OMP_NUM_THREADS: 1

---
input parameters:
  kpts: 
    density: 6.0
    gamma: True
  magmoms: [[1, 0, 0], [0, 0, 0], [0, 0, 0]]
  mixer: 
    backend: 'pulay'
    beta: 0.05
    method: 'sum'
    nmaxold: 5
    weight: 100
  mode: 
    name: 'pw'
    ecut: 1000
    qspiral: array([0.0952381, 0.0952381, 0.       ])
  parallel: 
    kpt: None
    domain: 1
    band: 1
    order: 'kdb'
    stridebands: False
    augment_grids: False
    sl_auto: False
    sl_default: None
    sl_diagonalize: None
    sl_inverse_cholesky: None
    sl_lcao: None
    sl_lrtddft: None
    use_elpa: False
    elpasolver: '2stage'
    buffer_size: None
    gpu: False
  symmetry: 
    point_group: False
    time_reversal: False
  xc: 
    name: 'LDA'

#                        
#                        
#                        
#                        
#                        
#              I         
#                        
#        Ni              
#          I             
#                        
#                        
#                        
#                        
#                        

atoms: [  # symbols, positions [Ang] and initial magnetic moments
  [ Ni, [   0.000000,    0.000000,    7.513573], [ 1.000,  0.000,  0.000]], # 0
  [  I, [   1.985000,    1.146040,    9.027147], [ 0.000,  0.000,  0.000]], # 1
  [  I, [  -0.000000,    2.292081,    6.000000], [ 0.000,  0.000,  0.000]]] # 2

cell: [  # Ang
#     x            y            z
  [   3.970000,    0.000000,    0.000000],
  [  -1.985000,    3.438121,    0.000000],
  [   0.000000,   -0.000000,   15.027147]]

periodic: [True      , True      , False     ]
lengths:  [  3.970000,   3.970000,  15.027147]  # Ang
angles:   [ 90.000000,  90.000000, 120.000000]

symmetry:
  number of symmetries: 1
  rotations: [
    [[ 1,  0,  0], [ 0,  1,  0], [ 0,  0,  1]]]

bz sampling:
  number of bz points: 121
  number of ibz points: 121
  monkhorst-pack size: [11, 11, 1]
  monkhorst-pack shift: [0, 0, 0]
  points and weights: [
    [[ -0.45454545,  -0.45454545,   0.00000000], 0.00826446],  # 0
    [[ -0.45454545,  -0.36363636,   0.00000000], 0.00826446],  # 1
    [[ -0.45454545,  -0.27272727,   0.00000000], 0.00826446],  # 2
    [[ -0.45454545,  -0.18181818,   0.00000000], 0.00826446],  # 3
    [[ -0.45454545,  -0.09090909,   0.00000000], 0.00826446],  # 4
    [[ -0.45454545,   0.00000000,   0.00000000], 0.00826446],  # 5
    [[ -0.45454545,   0.09090909,   0.00000000], 0.00826446],  # 6
    [[ -0.45454545,   0.18181818,   0.00000000], 0.00826446],  # 7
    [[ -0.45454545,   0.27272727,   0.00000000], 0.00826446],  # 8
    [[ -0.45454545,   0.36363636,   0.00000000], 0.00826446],  # 9
    # ...
    [[  0.45454545,   0.45454545,   0.00000000], 0.00826446]]  # 120

plane wave coefficients: 14746
cutoff: 1000.0 eV

spin-components: 4  # (non-collinear spins)
bands: 40
valence electrons: 30.0
spin-degeneracy: 1
dtype: complex128

memory:
    wave functions: 2_283_860_480  # bytes  (190_321_706 per core)

parallelization:
    kpt:    12
    domain: 1
    band:   1

density:
  components: 4
  grid points: [ 30  30 112]
  charge: 0.0  # |e|

potential:
  grid points: [ 30  30 112]

species:
  Ni:
    name: Nickel
    id: 1802175e8de9ea26d9f4394ec1a7d564
    Z: 28.0
    valence: 16
    core: 12
    charge: 0.0
    file: /zhome/86/d/1666/PAW/gpaw-setups-0.9.20000/Ni.LDA.gz
    compensation charges: {type: gauss,
                           rc: 0.36,
                           lmax: 2}
    cutoffs: {filter: 2.14,
              core: 1.98}
    valence states:
      #              energy  rcut
      - 4s(2.00)    -5.858   1.164
      - 3p(6.00)   -71.266   1.207
      - 4p(0.00)    -1.338   1.207
      - 3d(8.00)    -9.141   1.138
      -  s          21.353   1.164
      -  d          18.071   1.138
  
    # Using partial waves for Ni as LCAO basis

  I:
    name: Iodine
    id: b559721c0c096a7b4c8fc0e0f4de5cf4
    Z: 53.0
    valence: 7
    core: 46
    charge: 0.0
    file: /zhome/86/d/1666/PAW/gpaw-setups-0.9.20000/I.LDA.gz
    compensation charges: {type: gauss,
                           rc: 0.37,
                           lmax: 2}
    cutoffs: {filter: 2.06,
              core: 2.90}
    valence states:
      #              energy  rcut
      - 5s(2.00)   -17.626   1.164
      - 5p(5.00)    -7.241   1.164
      -  s           9.585   1.164
      -  p          19.970   1.164
      -  d           0.000   1.164
  
    # Using partial waves for I as LCAO basis

Reference energy: -428067.566327  # eV

eigensolver:
  name: 'Davidson'
  niter: 2
  converge_bands: 'occupied'
Density mixing:
  Method: sum
  Backend: pulay
  Linear mixing parameter: 0.05
  old densities: 5
  Damping of long wavelength oscillations: 100
occupation numbers:
  Fermi-Dirac:
    width: 0.1000  # eV
  

poisson solver:
  ecut: 8000.0  # eV

xc functional:
  name: None

convergence criteria:
- Maximum [total energy] change in last 3 cyles: 0.0005 eV / valence electron
- Maximum integral of absolute [dens]ity change: 0.0001 electrons / valence electron
- Maximum integral of absolute [eigenst]ate change: 4e-08 eV^2 / valence electron
maximum number of iterations: 333

#      iter     time        total  log10-change:
#                          energy   eigst   dens
# iter:   1 12:48:19   -13.886361                  +1.0,+0.0,+0.0
# iter:   2 12:48:53   -12.693483   -0.36  -1.31   +1.0,+0.0,+0.0
# iter:   3 12:49:27   -12.242173   -0.67  -1.45   +1.2,+0.0,+0.0
# iter:   4 12:50:01   -12.306380   -1.38  -1.68   +1.3,+0.0,-0.0
# iter:   5 12:50:36   -12.537943   -1.52  -1.66   +1.4,+0.0,+0.0
# iter:   6 12:51:10   -12.318182   -1.75  -1.76   +1.5,+0.0,-0.0
# iter:   7 12:51:44   -12.311161   -2.17  -2.17   +1.5,+0.0,-0.0
# iter:   8 12:52:19   -12.305933c  -2.37  -2.30   +1.6,+0.0,+0.0
# iter:   9 12:52:53   -12.307218c  -2.62  -2.71   +1.6,+0.0,+0.0
# iter:  10 12:53:27   -12.308222c  -2.88  -2.98   +1.6,+0.0,+0.0
# iter:  11 12:54:01   -12.315468c  -3.01  -2.95   +1.6,+0.0,+0.0
# iter:  12 12:54:35   -12.313579c  -3.29  -2.71   +1.6,+0.0,+0.0
# iter:  13 12:55:10   -12.313043c  -3.47  -2.83   +1.6,+0.0,+0.0
# iter:  14 12:55:44   -12.313667c  -3.63  -2.91   +1.7,+0.0,+0.0
# iter:  15 12:56:18   -12.313067c  -3.42  -2.98   +1.7,+0.0,+0.0
# iter:  16 12:56:52   -12.313610c  -3.95  -3.49   +1.7,+0.0,-0.0
# iter:  17 12:57:27   -12.313472c  -4.15  -3.95   +1.7,+0.0,-0.0
# iter:  18 12:58:01   -12.313531c  -4.32  -4.23c  +1.7,+0.0,-0.0
# iter:  19 12:58:35   -12.313649c  -4.47  -4.26c  +1.7,+0.0,-0.0
# iter:  20 12:59:09   -12.313763c  -4.61  -4.33c  +1.7,+0.0,-0.0
# iter:  21 12:59:43   -12.313847c  -4.76  -4.44c  +1.7,+0.0,-0.0
# iter:  22 13:00:18   -12.313839c  -4.91  -4.64c  +1.7,+0.0,-0.0
# iter:  23 13:00:52   -12.313888c  -5.07  -4.71c  +1.7,+0.0,-0.0
# iter:  24 13:01:26   -12.313881c  -5.22  -4.99c  +1.7,+0.0,-0.0
# iter:  25 13:02:00   -12.313867c  -5.36  -5.12c  +1.7,+0.0,-0.0
# iter:  26 13:02:35   -12.313858c  -5.51  -5.29c  +1.7,+0.0,-0.0
# iter:  27 13:03:09   -12.313860c  -5.65  -5.37c  +1.7,+0.0,-0.0
# iter:  28 13:03:44   -12.313861c  -5.79  -5.37c  +1.7,+0.0,-0.0
# iter:  29 13:04:18   -12.313865c  -5.94  -5.36c  +1.7,+0.0,-0.0
# iter:  30 13:04:52   -12.313868c  -6.08  -5.38c  +1.7,+0.0,-0.0
# iter:  31 13:05:26   -12.313868c  -6.23  -5.51c  +1.7,+0.0,-0.0
# iter:  32 13:06:01   -12.313869c  -6.37  -5.54c  +1.7,+0.0,+0.0
# iter:  33 13:06:35   -12.313870c  -6.51  -5.56c  +1.7,+0.0,-0.0
# iter:  34 13:07:10   -12.313869c  -6.65  -5.59c  +1.7,+0.0,-0.0
# iter:  35 13:07:44   -12.313866c  -6.79  -5.61c  +1.7,+0.0,+0.0
# iter:  36 13:08:18   -12.313861c  -6.93  -5.66c  +1.7,+0.0,-0.0
# iter:  37 13:08:52   -12.313860c  -7.07  -6.30c  +1.7,+0.0,-0.0
# iter:  38 13:09:26   -12.313860c  -7.21  -6.38c  +1.7,+0.0,-0.0
# iter:  39 13:10:01   -12.313860c  -7.35  -6.44c  +1.7,+0.0,-0.0
# iter:  40 13:10:35   -12.313860c  -7.50c -6.52c  +1.7,+0.0,+0.0
scf_steps: 40
energies:  # eV
  coulomb:          -7.774344
  zero:              0.067244
  xc:              -14.920664
  external:          0.000000
  kinetic:          10.333875
  spinorbit:         0.000000
  entropy:          -0.039945
  total:           -12.333833
  extrapolated:    -12.313860

dipole moment: [-4.184690, -7.247582, -5.454532]  # |e|*Ang

total magnetic moment: [1.696306, 0.024770, 0.000000]

local magnetic moments: [
  [ 1.140270,  0.000000, -0.000000],  # Ni 0
  [ 0.132598, -0.090395, -0.000000],  # I  1
  [ 0.132590, -0.090407,  0.000000]]  # I  2


Fermi level: -1.184 eV

kpt = [-0.455, -0.455, 0.000], weight = 0.008:
  Band      eig [eV]   occ [0-1]
     0       -64.966       1.000
   ...
    22        -3.121       1.000
    23        -2.973       1.000
    24        -2.909       1.000
    25        -2.293       1.000
    26        -2.152       1.000
    27        -2.128       1.000
    28        -1.672       0.992
    29        -1.631       0.989
    30        -0.701       0.008
    31        -0.682       0.007
    32         1.561       0.000
    33         2.353       0.000
    34         3.615       0.000
    35         4.556       0.000
    36         4.629       0.000
    37         4.741       0.000
   ...
    39         5.267       0.000

kpt = [-0.455, -0.364, 0.000], weight = 0.008:
  Band      eig [eV]   occ [0-1]
     0       -64.966       1.000
   ...
    22        -3.056       1.000
    23        -2.938       1.000
    24        -2.827       1.000
    25        -2.291       1.000
    26        -2.145       1.000
    27        -2.089       1.000
    28        -1.805       0.998
    29        -1.648       0.990
    30        -0.841       0.031
    31        -0.726       0.010
    32         1.831       0.000
    33         2.606       0.000
    34         4.004       0.000
    35         4.539       0.000
    36         4.610       0.000
    37         4.874       0.000
   ...
    39         5.601       0.000

kpt = [-0.455, -0.273, 0.000], weight = 0.008:
  Band      eig [eV]   occ [0-1]
     0       -64.966       1.000
   ...
    22        -3.021       1.000
    23        -2.915       1.000
    24        -2.749       1.000
    25        -2.289       1.000
    26        -2.144       1.000
    27        -2.090       1.000
    28        -1.875       0.999
    29        -1.648       0.990
    30        -0.982       0.117
    31        -0.742       0.012
    32         2.371       0.000
    33         2.561       0.000
    34         4.322       0.000
    35         4.694       0.000
    36         4.954       0.000
    37         5.015       0.000
   ...
    39         5.689       0.000
(only showing first 3 out of 121 k-points)

Gap: 0.177 eV
Transition (v -> c):
  (s=0, k=60, n=29, [0.00, 0.00, 0.00]) -> (s=0, k=24, n=30, [-0.27, -0.27, 0.00])
# Writing to gsq-26.gpw (mode='')

---

timing:  # [seconds]
  Total: 1390.735  # ━━━━━━━━━━━━━━━━━━━━━━━━━━━━━━━━━━━━━━━━━━━━━━━━━━━━━━━━
  Init:    20.597  # ━
  SCF:   1367.817  # ━━━━━━━━━━━━━━━━━━━━━━━━━━━━━━━━━━━━━━━━━━━━━━━━━━━━━━━

Max RSS: 1652.336  # MiB
