#  __  _  _
# | _ |_)|_||  |
# |__||  | ||/\| - 24.1.0

User:   s194113@n-62-28-31
Date:   Tue Apr 23 10:36:04 2024
Arch:   x86_64
Pid:    26488
CWD:    /zhome/87/8/147075/10302/10302_NM/NiI2/E_con
Python: 3.8.5
gpaw:   /zhome/87/8/147075/venv-name/gpaw/gpaw (10808453a8)
_gpaw:  /zhome/87/8/147075/venv-name/gpaw/
        _gpaw.cpython-38-x86_64-linux-gnu.so (10808453a8)
ase:    /zhome/87/8/147075/venv-name/ase/ase (version 3.23.0b1-c36115a2db)
numpy:  /zhome/87/8/147075/venv-name/lib/python3.8/site-packages/numpy (version 1.24.4)
scipy:  /zhome/87/8/147075/venv-name/lib/python3.8/site-packages/scipy (version 1.10.1)
libxc:  4.3.4
units:  Angstrom and eV
cores: 12
OpenMP: False
OMP_NUM_THREADS: 1

---
input parameters:
  kpts: 
    density: 6.0
    gamma: True
  magmoms: [[1, 0, 0], [0, 0, 0], [0, 0, 0]]
  mixer: 
    backend: 'pulay'
    beta: 0.05
    method: 'sum'
    nmaxold: 5
    weight: 100
  mode: 
    name: 'pw'
    ecut: 1000
    qspiral: array([0.21428571, 0.21428571, 0.        ])
  parallel: 
    kpt: None
    domain: 1
    band: 1
    order: 'kdb'
    stridebands: False
    augment_grids: False
    sl_auto: False
    sl_default: None
    sl_diagonalize: None
    sl_inverse_cholesky: None
    sl_lcao: None
    sl_lrtddft: None
    use_elpa: False
    elpasolver: '2stage'
    buffer_size: None
    gpu: False
  symmetry: 
    point_group: False
    time_reversal: False
  xc: 
    name: 'LDA'

#                        
#                        
#                        
#                        
#                        
#              I         
#                        
#        Ni              
#          I             
#                        
#                        
#                        
#                        
#                        

atoms: [  # symbols, positions [Ang] and initial magnetic moments
  [ Ni, [   0.000000,    0.000000,    7.513573], [ 1.000,  0.000,  0.000]], # 0
  [  I, [   1.985000,    1.146040,    9.027147], [ 0.000,  0.000,  0.000]], # 1
  [  I, [  -0.000000,    2.292081,    6.000000], [ 0.000,  0.000,  0.000]]] # 2

cell: [  # Ang
#     x            y            z
  [   3.970000,    0.000000,    0.000000],
  [  -1.985000,    3.438121,    0.000000],
  [   0.000000,   -0.000000,   15.027147]]

periodic: [True      , True      , False     ]
lengths:  [  3.970000,   3.970000,  15.027147]  # Ang
angles:   [ 90.000000,  90.000000, 120.000000]

symmetry:
  number of symmetries: 1
  rotations: [
    [[ 1,  0,  0], [ 0,  1,  0], [ 0,  0,  1]]]

bz sampling:
  number of bz points: 121
  number of ibz points: 121
  monkhorst-pack size: [11, 11, 1]
  monkhorst-pack shift: [0, 0, 0]
  points and weights: [
    [[ -0.45454545,  -0.45454545,   0.00000000], 0.00826446],  # 0
    [[ -0.45454545,  -0.36363636,   0.00000000], 0.00826446],  # 1
    [[ -0.45454545,  -0.27272727,   0.00000000], 0.00826446],  # 2
    [[ -0.45454545,  -0.18181818,   0.00000000], 0.00826446],  # 3
    [[ -0.45454545,  -0.09090909,   0.00000000], 0.00826446],  # 4
    [[ -0.45454545,   0.00000000,   0.00000000], 0.00826446],  # 5
    [[ -0.45454545,   0.09090909,   0.00000000], 0.00826446],  # 6
    [[ -0.45454545,   0.18181818,   0.00000000], 0.00826446],  # 7
    [[ -0.45454545,   0.27272727,   0.00000000], 0.00826446],  # 8
    [[ -0.45454545,   0.36363636,   0.00000000], 0.00826446],  # 9
    # ...
    [[  0.45454545,   0.45454545,   0.00000000], 0.00826446]]  # 120

plane wave coefficients: 14746
cutoff: 1000.0 eV

spin-components: 4  # (non-collinear spins)
bands: 40
valence electrons: 30.0
spin-degeneracy: 1
dtype: complex128

memory:
    wave functions: 2_283_860_480  # bytes  (190_321_706 per core)

parallelization:
    kpt:    12
    domain: 1
    band:   1

density:
  components: 4
  grid points: [ 30  30 112]
  charge: 0.0  # |e|

potential:
  grid points: [ 30  30 112]

species:
  Ni:
    name: Nickel
    id: 1802175e8de9ea26d9f4394ec1a7d564
    Z: 28.0
    valence: 16
    core: 12
    charge: 0.0
    file: /zhome/86/d/1666/PAW/gpaw-setups-0.9.20000/Ni.LDA.gz
    compensation charges: {type: gauss,
                           rc: 0.36,
                           lmax: 2}
    cutoffs: {filter: 2.14,
              core: 1.98}
    valence states:
      #              energy  rcut
      - 4s(2.00)    -5.858   1.164
      - 3p(6.00)   -71.266   1.207
      - 4p(0.00)    -1.338   1.207
      - 3d(8.00)    -9.141   1.138
      -  s          21.353   1.164
      -  d          18.071   1.138
  
    # Using partial waves for Ni as LCAO basis

  I:
    name: Iodine
    id: b559721c0c096a7b4c8fc0e0f4de5cf4
    Z: 53.0
    valence: 7
    core: 46
    charge: 0.0
    file: /zhome/86/d/1666/PAW/gpaw-setups-0.9.20000/I.LDA.gz
    compensation charges: {type: gauss,
                           rc: 0.37,
                           lmax: 2}
    cutoffs: {filter: 2.06,
              core: 2.90}
    valence states:
      #              energy  rcut
      - 5s(2.00)   -17.626   1.164
      - 5p(5.00)    -7.241   1.164
      -  s           9.585   1.164
      -  p          19.970   1.164
      -  d           0.000   1.164
  
    # Using partial waves for I as LCAO basis

Reference energy: -428067.566327  # eV

eigensolver:
  name: 'Davidson'
  niter: 2
  converge_bands: 'occupied'
Density mixing:
  Method: sum
  Backend: pulay
  Linear mixing parameter: 0.05
  old densities: 5
  Damping of long wavelength oscillations: 100
occupation numbers:
  Fermi-Dirac:
    width: 0.1000  # eV
  

poisson solver:
  ecut: 8000.0  # eV

xc functional:
  name: None

convergence criteria:
- Maximum [total energy] change in last 3 cyles: 0.0005 eV / valence electron
- Maximum integral of absolute [dens]ity change: 0.0001 electrons / valence electron
- Maximum integral of absolute [eigenst]ate change: 4e-08 eV^2 / valence electron
maximum number of iterations: 333

#      iter     time        total  log10-change:
#                          energy   eigst   dens
# iter:   1 10:36:57   -13.464254                  +1.0,+0.0,+0.0
# iter:   2 10:37:32   -12.610377   +0.11  -1.31   +0.9,+0.0,-0.0
# iter:   3 10:38:07   -12.216144   -0.44  -1.45   +0.9,+0.0,+0.0
# iter:   4 10:38:43   -12.284322   -1.06  -1.68   +1.0,+0.0,+0.0
# iter:   5 10:39:18   -12.568106   -1.22  -1.66   +1.1,+0.0,+0.0
# iter:   6 10:39:53   -12.301420   -1.44  -1.72   +1.1,+0.0,+0.0
# iter:   7 10:40:28   -12.296900   -1.75  -2.17   +1.1,+0.0,+0.0
# iter:   8 10:41:03   -12.292948c  -1.93  -2.32   +1.2,+0.0,+0.0
# iter:   9 10:41:38   -12.293619c  -2.12  -2.65   +1.2,+0.0,+0.0
# iter:  10 10:42:13   -12.295160c  -2.29  -2.98   +1.2,+0.0,-0.0
# iter:  11 10:42:48   -12.299084c  -2.45  -2.84   +1.3,+0.0,-0.0
# iter:  12 10:43:23   -12.300033c  -2.61  -3.51   +1.3,+0.0,-0.0
# iter:  13 10:43:58   -12.300139c  -2.75  -3.66   +1.3,+0.0,-0.0
# iter:  14 10:44:33   -12.300147c  -2.89  -3.71   +1.3,+0.0,-0.0
# iter:  15 10:45:08   -12.300318c  -3.02  -3.71   +1.3,+0.0,-0.0
# iter:  16 10:45:43   -12.300338c  -3.16  -3.73   +1.3,+0.0,-0.0
# iter:  17 10:46:18   -12.300440c  -3.29  -3.72   +1.3,+0.0,-0.0
# iter:  18 10:46:53   -12.300434c  -3.42  -3.65   +1.3,+0.0,-0.0
# iter:  19 10:47:27   -12.300426c  -3.55  -3.81   +1.3,+0.0,-0.0
# iter:  20 10:48:02   -12.300628c  -3.68  -3.81   +1.3,+0.0,+0.0
# iter:  21 10:48:37   -12.300953c  -3.81  -3.77   +1.3,+0.0,+0.0
# iter:  22 10:49:12   -12.301221c  -3.94  -3.81   +1.3,+0.0,+0.0
# iter:  23 10:49:47   -12.301487c  -4.07  -3.83   +1.3,+0.0,+0.0
# iter:  24 10:50:22   -12.302360c  -4.14  -3.91   +1.3,+0.0,+0.0
# iter:  25 10:50:57   -12.302365c  -4.33  -4.47c  +1.3,+0.0,+0.0
# iter:  26 10:51:31   -12.302373c  -4.47  -4.52c  +1.3,+0.0,+0.0
# iter:  27 10:52:07   -12.302413c  -4.60  -4.56c  +1.3,+0.0,+0.0
# iter:  28 10:52:41   -12.302441c  -4.73  -4.55c  +1.3,+0.0,+0.0
# iter:  29 10:53:16   -12.302447c  -4.86  -4.82c  +1.3,+0.0,+0.0
# iter:  30 10:53:51   -12.302423c  -5.00  -4.90c  +1.3,+0.0,+0.0
# iter:  31 10:54:26   -12.302421c  -5.14  -4.97c  +1.3,+0.0,+0.0
# iter:  32 10:55:01   -12.302439c  -5.27  -5.11c  +1.3,+0.0,+0.0
# iter:  33 10:55:35   -12.302440c  -5.40  -5.07c  +1.3,+0.0,+0.0
# iter:  34 10:56:10   -12.302447c  -5.54  -5.21c  +1.3,+0.0,+0.0
# iter:  35 10:56:45   -12.302448c  -5.68  -5.31c  +1.3,+0.0,+0.0
# iter:  36 10:57:20   -12.302462c  -5.82  -5.38c  +1.3,+0.0,+0.0
# iter:  37 10:57:55   -12.302460c  -5.96  -5.48c  +1.3,+0.0,+0.0
# iter:  38 10:58:29   -12.302459c  -6.10  -5.56c  +1.3,+0.0,+0.0
# iter:  39 10:59:04   -12.302459c  -6.24  -5.65c  +1.3,+0.0,+0.0
# iter:  40 10:59:38   -12.302457c  -6.39  -5.86c  +1.3,+0.0,+0.0
# iter:  41 11:00:13   -12.302456c  -6.52  -5.94c  +1.3,+0.0,+0.0
# iter:  42 11:00:48   -12.302457c  -6.67  -5.96c  +1.3,+0.0,+0.0
# iter:  43 11:01:22   -12.302456c  -6.81  -6.13c  +1.3,+0.0,+0.0
# iter:  44 11:01:57   -12.302456c  -6.96  -6.56c  +1.3,+0.0,+0.0
# iter:  45 11:02:32   -12.302456c  -7.10  -6.61c  +1.3,+0.0,+0.0
# iter:  46 11:03:07   -12.302456c  -7.25  -6.62c  +1.3,+0.0,+0.0
# iter:  47 11:03:41   -12.302456c  -7.40c -6.58c  +1.3,+0.0,+0.0
scf_steps: 47
energies:  # eV
  coulomb:          -7.659380
  zero:              0.067437
  xc:              -14.882013
  external:          0.000000
  kinetic:          10.192069
  spinorbit:         0.000000
  entropy:          -0.041136
  total:           -12.323024
  extrapolated:    -12.302456

dipole moment: [-3.826284, -6.626478, -2.717000]  # |e|*Ang

total magnetic moment: [1.341007, 0.022254, 0.000000]

local magnetic moments: [
  [ 1.119982,  0.000000,  0.000000],  # Ni 0
  [ 0.018745, -0.081971,  0.000000],  # I  1
  [ 0.018677, -0.081987,  0.000000]]  # I  2


Fermi level: -1.192 eV

kpt = [-0.455, -0.455, 0.000], weight = 0.008:
  Band      eig [eV]   occ [0-1]
     0       -64.948       1.000
   ...
    22        -3.040       1.000
    23        -2.879       1.000
    24        -2.808       1.000
    25        -2.319       1.000
    26        -2.146       1.000
    27        -2.106       1.000
    28        -1.783       0.997
    29        -1.705       0.994
    30        -0.892       0.047
    31        -0.811       0.022
    32         1.989       0.000
    33         2.593       0.000
    34         4.300       0.000
    35         4.807       0.000
    36         4.851       0.000
    37         4.860       0.000
   ...
    39         5.254       0.000

kpt = [-0.455, -0.364, 0.000], weight = 0.008:
  Band      eig [eV]   occ [0-1]
     0       -64.948       1.000
   ...
    22        -3.006       1.000
    23        -2.903       1.000
    24        -2.865       1.000
    25        -2.432       1.000
    26        -2.169       1.000
    27        -2.140       1.000
    28        -1.720       0.995
    29        -1.552       0.973
    30        -0.850       0.032
    31        -0.696       0.007
    32         1.630       0.000
    33         2.558       0.000
    34         3.686       0.000
    35         4.457       0.000
    36         4.658       0.000
    37         4.827       0.000
   ...
    39         5.921       0.000

kpt = [-0.455, -0.273, 0.000], weight = 0.008:
  Band      eig [eV]   occ [0-1]
     0       -64.948       1.000
   ...
    22        -2.938       1.000
    23        -2.925       1.000
    24        -2.809       1.000
    25        -2.457       1.000
    26        -2.187       1.000
    27        -2.128       1.000
    28        -1.666       0.991
    29        -1.476       0.945
    30        -0.883       0.043
    31        -0.675       0.006
    32         1.810       0.000
    33         2.325       0.000
    34         3.848       0.000
    35         4.415       0.000
    36         4.426       0.000
    37         4.935       0.000
   ...
    39         5.161       0.000
(only showing first 3 out of 121 k-points)

Gap: 0.381 eV
Transition (v -> c):
  (s=0, k=38, n=29, [-0.18, 0.00, 0.00]) -> (s=0, k=90, n=30, [0.27, -0.27, 0.00])
# Writing to gsq-21.gpw (mode='')

---

timing:  # [seconds]
  Total: 4883.604  # ━━━━━━━━━━━━━━━━━━━━━━━━━━━━━━━━━━━━━━━━━━━━━━━━━━━━━━━━
  Init:    20.612  # 
  SCF:   1636.238  # ━━━━━━━━━━━━━━━━━━━

Max RSS: 1645.785  # MiB
