#  __  _  _
# | _ |_)|_||  |
# |__||  | ||/\| - 24.1.0

User:   s194113@n-62-28-31
Date:   Tue Apr 23 13:34:46 2024
Arch:   x86_64
Pid:    26488
CWD:    /zhome/87/8/147075/10302/10302_NM/NiI2/E_con
Python: 3.8.5
gpaw:   /zhome/87/8/147075/venv-name/gpaw/gpaw (10808453a8)
_gpaw:  /zhome/87/8/147075/venv-name/gpaw/
        _gpaw.cpython-38-x86_64-linux-gnu.so (10808453a8)
ase:    /zhome/87/8/147075/venv-name/ase/ase (version 3.23.0b1-c36115a2db)
numpy:  /zhome/87/8/147075/venv-name/lib/python3.8/site-packages/numpy (version 1.24.4)
scipy:  /zhome/87/8/147075/venv-name/lib/python3.8/site-packages/scipy (version 1.10.1)
libxc:  4.3.4
units:  Angstrom and eV
cores: 12
OpenMP: False
OMP_NUM_THREADS: 1

---
input parameters:
  kpts: 
    density: 6.0
    gamma: True
  magmoms: [[1, 0, 0], [0, 0, 0], [0, 0, 0]]
  mixer: 
    backend: 'pulay'
    beta: 0.05
    method: 'sum'
    nmaxold: 5
    weight: 100
  mode: 
    name: 'pw'
    ecut: 1000
    qspiral: array([0.04761905, 0.04761905, 0.        ])
  parallel: 
    kpt: None
    domain: 1
    band: 1
    order: 'kdb'
    stridebands: False
    augment_grids: False
    sl_auto: False
    sl_default: None
    sl_diagonalize: None
    sl_inverse_cholesky: None
    sl_lcao: None
    sl_lrtddft: None
    use_elpa: False
    elpasolver: '2stage'
    buffer_size: None
    gpu: False
  symmetry: 
    point_group: False
    time_reversal: False
  xc: 
    name: 'LDA'

#                        
#                        
#                        
#                        
#                        
#              I         
#                        
#        Ni              
#          I             
#                        
#                        
#                        
#                        
#                        

atoms: [  # symbols, positions [Ang] and initial magnetic moments
  [ Ni, [   0.000000,    0.000000,    7.513573], [ 1.000,  0.000,  0.000]], # 0
  [  I, [   1.985000,    1.146040,    9.027147], [ 0.000,  0.000,  0.000]], # 1
  [  I, [  -0.000000,    2.292081,    6.000000], [ 0.000,  0.000,  0.000]]] # 2

cell: [  # Ang
#     x            y            z
  [   3.970000,    0.000000,    0.000000],
  [  -1.985000,    3.438121,    0.000000],
  [   0.000000,   -0.000000,   15.027147]]

periodic: [True      , True      , False     ]
lengths:  [  3.970000,   3.970000,  15.027147]  # Ang
angles:   [ 90.000000,  90.000000, 120.000000]

symmetry:
  number of symmetries: 1
  rotations: [
    [[ 1,  0,  0], [ 0,  1,  0], [ 0,  0,  1]]]

bz sampling:
  number of bz points: 121
  number of ibz points: 121
  monkhorst-pack size: [11, 11, 1]
  monkhorst-pack shift: [0, 0, 0]
  points and weights: [
    [[ -0.45454545,  -0.45454545,   0.00000000], 0.00826446],  # 0
    [[ -0.45454545,  -0.36363636,   0.00000000], 0.00826446],  # 1
    [[ -0.45454545,  -0.27272727,   0.00000000], 0.00826446],  # 2
    [[ -0.45454545,  -0.18181818,   0.00000000], 0.00826446],  # 3
    [[ -0.45454545,  -0.09090909,   0.00000000], 0.00826446],  # 4
    [[ -0.45454545,   0.00000000,   0.00000000], 0.00826446],  # 5
    [[ -0.45454545,   0.09090909,   0.00000000], 0.00826446],  # 6
    [[ -0.45454545,   0.18181818,   0.00000000], 0.00826446],  # 7
    [[ -0.45454545,   0.27272727,   0.00000000], 0.00826446],  # 8
    [[ -0.45454545,   0.36363636,   0.00000000], 0.00826446],  # 9
    # ...
    [[  0.45454545,   0.45454545,   0.00000000], 0.00826446]]  # 120

plane wave coefficients: 14746
cutoff: 1000.0 eV

spin-components: 4  # (non-collinear spins)
bands: 40
valence electrons: 30.0
spin-degeneracy: 1
dtype: complex128

memory:
    wave functions: 2_283_860_480  # bytes  (190_321_706 per core)

parallelization:
    kpt:    12
    domain: 1
    band:   1

density:
  components: 4
  grid points: [ 30  30 112]
  charge: 0.0  # |e|

potential:
  grid points: [ 30  30 112]

species:
  Ni:
    name: Nickel
    id: 1802175e8de9ea26d9f4394ec1a7d564
    Z: 28.0
    valence: 16
    core: 12
    charge: 0.0
    file: /zhome/86/d/1666/PAW/gpaw-setups-0.9.20000/Ni.LDA.gz
    compensation charges: {type: gauss,
                           rc: 0.36,
                           lmax: 2}
    cutoffs: {filter: 2.14,
              core: 1.98}
    valence states:
      #              energy  rcut
      - 4s(2.00)    -5.858   1.164
      - 3p(6.00)   -71.266   1.207
      - 4p(0.00)    -1.338   1.207
      - 3d(8.00)    -9.141   1.138
      -  s          21.353   1.164
      -  d          18.071   1.138
  
    # Using partial waves for Ni as LCAO basis

  I:
    name: Iodine
    id: b559721c0c096a7b4c8fc0e0f4de5cf4
    Z: 53.0
    valence: 7
    core: 46
    charge: 0.0
    file: /zhome/86/d/1666/PAW/gpaw-setups-0.9.20000/I.LDA.gz
    compensation charges: {type: gauss,
                           rc: 0.37,
                           lmax: 2}
    cutoffs: {filter: 2.06,
              core: 2.90}
    valence states:
      #              energy  rcut
      - 5s(2.00)   -17.626   1.164
      - 5p(5.00)    -7.241   1.164
      -  s           9.585   1.164
      -  p          19.970   1.164
      -  d           0.000   1.164
  
    # Using partial waves for I as LCAO basis

Reference energy: -428067.566327  # eV

eigensolver:
  name: 'Davidson'
  niter: 2
  converge_bands: 'occupied'
Density mixing:
  Method: sum
  Backend: pulay
  Linear mixing parameter: 0.05
  old densities: 5
  Damping of long wavelength oscillations: 100
occupation numbers:
  Fermi-Dirac:
    width: 0.1000  # eV
  

poisson solver:
  ecut: 8000.0  # eV

xc functional:
  name: None

convergence criteria:
- Maximum [total energy] change in last 3 cyles: 0.0005 eV / valence electron
- Maximum integral of absolute [dens]ity change: 0.0001 electrons / valence electron
- Maximum integral of absolute [eigenst]ate change: 4e-08 eV^2 / valence electron
maximum number of iterations: 333

#      iter     time        total  log10-change:
#                          energy   eigst   dens
# iter:   1 13:35:39   -13.961079                  +1.0,+0.0,+0.0
# iter:   2 13:36:13   -12.695863   -0.50  -1.31   +1.0,+0.0,-0.0
# iter:   3 13:36:47   -12.234274   -0.72  -1.45   +1.2,+0.0,+0.0
# iter:   4 13:37:21   -12.290262   -1.37  -1.68   +1.4,+0.0,+0.0
# iter:   5 13:37:56   -12.535181   -1.51  -1.65   +1.4,+0.0,+0.0
# iter:   6 13:38:31   -12.283727   -1.69  -1.74   +1.5,+0.0,+0.0
# iter:   7 13:39:05   -12.287882   -2.20  -2.24   +1.5,+0.0,+0.0
# iter:   8 13:39:40   -12.288654c  -2.42  -2.32   +1.6,+0.0,+0.0
# iter:   9 13:40:14   -12.289531c  -2.64  -2.63   +1.7,+0.0,+0.0
# iter:  10 13:40:48   -12.290471c  -2.91  -2.97   +1.7,+0.0,+0.0
# iter:  11 13:41:23   -12.297327c  -3.10  -2.94   +1.7,+0.0,+0.0
# iter:  12 13:41:57   -12.296251c  -3.31  -2.96   +1.7,+0.0,+0.0
# iter:  13 13:42:32   -12.296924c  -3.51  -3.19   +1.7,+0.0,+0.0
# iter:  14 13:43:06   -12.296993c  -3.45  -3.00   +1.8,+0.0,-0.0
# iter:  15 13:43:40   -12.297117c  -3.83  -3.81   +1.8,+0.0,-0.0
# iter:  16 13:44:15   -12.296883c  -4.02  -3.78   +1.8,+0.0,-0.0
# iter:  17 13:44:49   -12.297232c  -4.21  -3.61   +1.8,+0.0,-0.0
# iter:  18 13:45:23   -12.297361c  -4.39  -3.84   +1.8,+0.0,-0.0
# iter:  19 13:45:58   -12.297335c  -4.56  -3.91   +1.8,+0.0,-0.0
# iter:  20 13:46:33   -12.297456c  -4.72  -3.92   +1.8,+0.0,-0.0
# iter:  21 13:47:07   -12.297883c  -4.84  -3.92   +1.8,+0.0,-0.0
# iter:  22 13:47:41   -12.298022c  -5.03  -3.97   +1.8,+0.0,+0.0
# iter:  23 13:48:16   -12.298016c  -5.20  -3.96   +1.8,+0.0,-0.0
# iter:  24 13:48:50   -12.298405c  -5.28  -3.95   +1.8,+0.0,+0.0
# iter:  25 13:49:24   -12.298421c  -5.49  -4.05c  +1.8,+0.0,+0.0
# iter:  26 13:49:58   -12.298524c  -5.68  -4.08c  +1.8,+0.0,+0.0
# iter:  27 13:50:33   -12.298846c  -5.62  -4.15c  +1.8,+0.0,+0.0
# iter:  28 13:51:07   -12.298848c  -5.98  -4.61c  +1.8,+0.0,+0.0
# iter:  29 13:51:42   -12.298802c  -6.18  -4.64c  +1.8,+0.0,+0.0
# iter:  30 13:52:16   -12.298787c  -6.34  -4.64c  +1.8,+0.0,+0.0
# iter:  31 13:52:51   -12.298765c  -6.49  -4.78c  +1.8,+0.0,+0.0
# iter:  32 13:53:25   -12.298728c  -6.60  -4.91c  +1.8,+0.0,+0.0
# iter:  33 13:53:59   -12.298722c  -6.81  -4.99c  +1.8,+0.0,+0.0
# iter:  34 13:54:34   -12.298726c  -6.96  -5.10c  +1.8,+0.0,+0.0
# iter:  35 13:55:09   -12.298728c  -7.11  -5.47c  +1.8,+0.0,+0.0
# iter:  36 13:55:43   -12.298728c  -7.25  -5.50c  +1.8,+0.0,+0.0
# iter:  37 13:56:17   -12.298736c  -7.38  -5.52c  +1.8,+0.0,+0.0
# iter:  38 13:56:52   -12.298737c  -7.54c -5.53c  +1.8,+0.0,+0.0
scf_steps: 38
energies:  # eV
  coulomb:          -7.993522
  zero:              0.067054
  xc:              -14.950025
  external:          0.000000
  kinetic:          10.602215
  spinorbit:         0.000000
  entropy:          -0.048916
  total:           -12.323195
  extrapolated:    -12.298737

dipole moment: [-4.277324, -7.408272, -6.187506]  # |e|*Ang

total magnetic moment: [1.789694, 0.014456, 0.000000]

local magnetic moments: [
  [ 1.146942, -0.000000,  0.000000],  # Ni 0
  [ 0.170234, -0.052512, -0.000000],  # I  1
  [ 0.170235, -0.052509, -0.000000]]  # I  2


Fermi level: -1.184 eV

kpt = [-0.455, -0.455, 0.000], weight = 0.008:
  Band      eig [eV]   occ [0-1]
     0       -64.977       1.000
   ...
    22        -3.139       1.000
    23        -3.001       1.000
    24        -2.910       1.000
    25        -2.294       1.000
    26        -2.160       1.000
    27        -2.131       1.000
    28        -1.619       0.987
    29        -1.605       0.985
    30        -0.677       0.006
    31        -0.669       0.006
    32         1.613       0.000
    33         2.120       0.000
    34         3.717       0.000
    35         4.439       0.000
    36         4.576       0.000
    37         4.662       0.000
   ...
    39         5.157       0.000

kpt = [-0.455, -0.364, 0.000], weight = 0.008:
  Band      eig [eV]   occ [0-1]
     0       -64.977       1.000
   ...
    22        -3.070       1.000
    23        -2.947       1.000
    24        -2.801       1.000
    25        -2.255       1.000
    26        -2.141       1.000
    27        -2.056       1.000
    28        -1.879       0.999
    29        -1.656       0.991
    30        -0.911       0.061
    31        -0.713       0.009
    32         2.082       0.000
    33         2.556       0.000
    34         4.366       0.000
    35         4.532       0.000
    36         4.812       0.000
    37         4.950       0.000
   ...
    39         5.384       0.000

kpt = [-0.455, -0.273, 0.000], weight = 0.008:
  Band      eig [eV]   occ [0-1]
     0       -64.977       1.000
   ...
    22        -3.052       1.000
    23        -2.918       1.000
    24        -2.738       1.000
    25        -2.248       1.000
    26        -2.136       1.000
    27        -2.070       1.000
    28        -1.959       1.000
    29        -1.678       0.993
    30        -1.033       0.181
    31        -0.735       0.011
    32         2.487       0.000
    33         2.700       0.000
    34         4.268       0.000
    35         4.497       0.000
    36         5.217       0.000
    37         5.338       0.000
   ...
    39         5.862       0.000
(only showing first 3 out of 121 k-points)

No gap
# Writing to gsq-28.gpw (mode='')

