#  __  _  _
# | _ |_)|_||  |
# |__||  | ||/\| - 24.1.0

User:   s194113@n-62-28-31
Date:   Tue Apr 23 07:31:33 2024
Arch:   x86_64
Pid:    26488
CWD:    /zhome/87/8/147075/10302/10302_NM/NiI2/E_con
Python: 3.8.5
gpaw:   /zhome/87/8/147075/venv-name/gpaw/gpaw (10808453a8)
_gpaw:  /zhome/87/8/147075/venv-name/gpaw/
        _gpaw.cpython-38-x86_64-linux-gnu.so (10808453a8)
ase:    /zhome/87/8/147075/venv-name/ase/ase (version 3.23.0b1-c36115a2db)
numpy:  /zhome/87/8/147075/venv-name/lib/python3.8/site-packages/numpy (version 1.24.4)
scipy:  /zhome/87/8/147075/venv-name/lib/python3.8/site-packages/scipy (version 1.10.1)
libxc:  4.3.4
units:  Angstrom and eV
cores: 12
OpenMP: False
OMP_NUM_THREADS: 1

---
input parameters:
  kpts: 
    density: 6.0
    gamma: True
  magmoms: [[1, 0, 0], [0, 0, 0], [0, 0, 0]]
  mixer: 
    backend: 'pulay'
    beta: 0.05
    method: 'sum'
    nmaxold: 5
    weight: 100
  mode: 
    name: 'pw'
    ecut: 1000
    qspiral: array([0.36111111, 0.27777778, 0.        ])
  parallel: 
    kpt: None
    domain: 1
    band: 1
    order: 'kdb'
    stridebands: False
    augment_grids: False
    sl_auto: False
    sl_default: None
    sl_diagonalize: None
    sl_inverse_cholesky: None
    sl_lcao: None
    sl_lrtddft: None
    use_elpa: False
    elpasolver: '2stage'
    buffer_size: None
    gpu: False
  symmetry: 
    point_group: False
    time_reversal: False
  xc: 
    name: 'LDA'

#                        
#                        
#                        
#                        
#                        
#              I         
#                        
#        Ni              
#          I             
#                        
#                        
#                        
#                        
#                        

atoms: [  # symbols, positions [Ang] and initial magnetic moments
  [ Ni, [   0.000000,    0.000000,    7.513573], [ 1.000,  0.000,  0.000]], # 0
  [  I, [   1.985000,    1.146040,    9.027147], [ 0.000,  0.000,  0.000]], # 1
  [  I, [  -0.000000,    2.292081,    6.000000], [ 0.000,  0.000,  0.000]]] # 2

cell: [  # Ang
#     x            y            z
  [   3.970000,    0.000000,    0.000000],
  [  -1.985000,    3.438121,    0.000000],
  [   0.000000,   -0.000000,   15.027147]]

periodic: [True      , True      , False     ]
lengths:  [  3.970000,   3.970000,  15.027147]  # Ang
angles:   [ 90.000000,  90.000000, 120.000000]

symmetry:
  number of symmetries: 1
  rotations: [
    [[ 1,  0,  0], [ 0,  1,  0], [ 0,  0,  1]]]

bz sampling:
  number of bz points: 121
  number of ibz points: 121
  monkhorst-pack size: [11, 11, 1]
  monkhorst-pack shift: [0, 0, 0]
  points and weights: [
    [[ -0.45454545,  -0.45454545,   0.00000000], 0.00826446],  # 0
    [[ -0.45454545,  -0.36363636,   0.00000000], 0.00826446],  # 1
    [[ -0.45454545,  -0.27272727,   0.00000000], 0.00826446],  # 2
    [[ -0.45454545,  -0.18181818,   0.00000000], 0.00826446],  # 3
    [[ -0.45454545,  -0.09090909,   0.00000000], 0.00826446],  # 4
    [[ -0.45454545,   0.00000000,   0.00000000], 0.00826446],  # 5
    [[ -0.45454545,   0.09090909,   0.00000000], 0.00826446],  # 6
    [[ -0.45454545,   0.18181818,   0.00000000], 0.00826446],  # 7
    [[ -0.45454545,   0.27272727,   0.00000000], 0.00826446],  # 8
    [[ -0.45454545,   0.36363636,   0.00000000], 0.00826446],  # 9
    # ...
    [[  0.45454545,   0.45454545,   0.00000000], 0.00826446]]  # 120

plane wave coefficients: 14746
cutoff: 1000.0 eV

spin-components: 4  # (non-collinear spins)
bands: 40
valence electrons: 30.0
spin-degeneracy: 1
dtype: complex128

memory:
    wave functions: 2_283_860_480  # bytes  (190_321_706 per core)

parallelization:
    kpt:    12
    domain: 1
    band:   1

density:
  components: 4
  grid points: [ 30  30 112]
  charge: 0.0  # |e|

potential:
  grid points: [ 30  30 112]

species:
  Ni:
    name: Nickel
    id: 1802175e8de9ea26d9f4394ec1a7d564
    Z: 28.0
    valence: 16
    core: 12
    charge: 0.0
    file: /zhome/86/d/1666/PAW/gpaw-setups-0.9.20000/Ni.LDA.gz
    compensation charges: {type: gauss,
                           rc: 0.36,
                           lmax: 2}
    cutoffs: {filter: 2.14,
              core: 1.98}
    valence states:
      #              energy  rcut
      - 4s(2.00)    -5.858   1.164
      - 3p(6.00)   -71.266   1.207
      - 4p(0.00)    -1.338   1.207
      - 3d(8.00)    -9.141   1.138
      -  s          21.353   1.164
      -  d          18.071   1.138
  
    # Using partial waves for Ni as LCAO basis

  I:
    name: Iodine
    id: b559721c0c096a7b4c8fc0e0f4de5cf4
    Z: 53.0
    valence: 7
    core: 46
    charge: 0.0
    file: /zhome/86/d/1666/PAW/gpaw-setups-0.9.20000/I.LDA.gz
    compensation charges: {type: gauss,
                           rc: 0.37,
                           lmax: 2}
    cutoffs: {filter: 2.06,
              core: 2.90}
    valence states:
      #              energy  rcut
      - 5s(2.00)   -17.626   1.164
      - 5p(5.00)    -7.241   1.164
      -  s           9.585   1.164
      -  p          19.970   1.164
      -  d           0.000   1.164
  
    # Using partial waves for I as LCAO basis

Reference energy: -428067.566327  # eV

eigensolver:
  name: 'Davidson'
  niter: 2
  converge_bands: 'occupied'
Density mixing:
  Method: sum
  Backend: pulay
  Linear mixing parameter: 0.05
  old densities: 5
  Damping of long wavelength oscillations: 100
occupation numbers:
  Fermi-Dirac:
    width: 0.1000  # eV
  

poisson solver:
  ecut: 8000.0  # eV

xc functional:
  name: None

convergence criteria:
- Maximum [total energy] change in last 3 cyles: 0.0005 eV / valence electron
- Maximum integral of absolute [dens]ity change: 0.0001 electrons / valence electron
- Maximum integral of absolute [eigenst]ate change: 4e-08 eV^2 / valence electron
maximum number of iterations: 333

#      iter     time        total  log10-change:
#                          energy   eigst   dens
# iter:   1 07:32:26   -12.768017                  +1.0,+0.0,+0.0
# iter:   2 07:33:01   -12.460883   +0.44  -1.31   +0.8,+0.0,-0.0
# iter:   3 07:33:36   -12.175398   -0.22  -1.45   +0.7,+0.0,-0.0
# iter:   4 07:34:11   -12.217669   -0.77  -1.68   +0.8,+0.0,-0.0
# iter:   5 07:34:46   -12.596880   -0.94  -1.68   +0.9,+0.0,-0.0
# iter:   6 07:35:22   -12.278094   -1.19  -1.68   +0.8,+0.0,-0.0
# iter:   7 07:35:57   -12.289059   -1.46  -2.21   +0.9,+0.0,+0.0
# iter:   8 07:36:32   -12.280032c  -1.61  -2.29   +0.9,+0.0,-0.0
# iter:   9 07:37:07   -12.281211c  -1.78  -2.70   +0.9,+0.0,-0.0
# iter:  10 07:37:42   -12.287032c  -1.92  -2.85   +1.0,+0.0,-0.0
# iter:  11 07:38:17   -12.291457c  -1.99  -2.78   +1.0,+0.0,+0.0
# iter:  12 07:38:52   -12.289538c  -2.22  -2.63   +1.0,+0.0,+0.0
# iter:  13 07:39:28   -12.289737c  -2.36  -3.08   +1.0,+0.0,+0.0
# iter:  14 07:40:03   -12.290447c  -2.49  -3.43   +1.0,+0.0,+0.0
# iter:  15 07:40:38   -12.290131c  -2.64  -3.19   +1.0,+0.0,+0.0
# iter:  16 07:41:13   -12.290169c  -2.77  -3.76   +1.0,+0.0,+0.0
# iter:  17 07:41:48   -12.290723c  -2.89  -3.74   +1.0,+0.0,+0.0
# iter:  18 07:42:23   -12.290658c  -3.02  -3.57   +1.0,+0.0,+0.0
# iter:  19 07:42:58   -12.290753c  -3.15  -3.68   +1.0,+0.0,+0.0
# iter:  20 07:43:33   -12.290515c  -3.28  -3.67   +1.0,+0.0,+0.0
# iter:  21 07:44:08   -12.291004c  -3.41  -3.69   +1.0,+0.0,+0.0
# iter:  22 07:44:43   -12.291143c  -3.54  -3.66   +1.0,+0.0,+0.0
# iter:  23 07:45:18   -12.291115c  -3.67  -3.63   +1.0,+0.0,+0.0
# iter:  24 07:45:53   -12.291023c  -3.79  -3.60   +1.0,+0.0,-0.0
# iter:  25 07:46:28   -12.291035c  -3.92  -3.68   +1.0,+0.0,+0.0
# iter:  26 07:47:03   -12.290636c  -4.01  -3.68   +1.0,+0.0,-0.0
# iter:  27 07:47:38   -12.290890c  -4.16  -3.52   +1.0,+0.0,-0.0
# iter:  28 07:48:13   -12.290389c  -4.25  -3.50   +1.0,+0.0,-0.0
# iter:  29 07:48:48   -12.290333c  -4.39  -3.34   +1.0,+0.0,-0.0
# iter:  30 07:49:23   -12.291048c  -4.52  -3.56   +1.0,+0.0,+0.0
# iter:  31 07:49:57   -12.291169c  -4.70  -3.70   +1.0,+0.0,+0.0
# iter:  32 07:50:32   -12.291896c  -4.63  -3.71   +1.0,+0.0,+0.0
# iter:  33 07:51:07   -12.292532c  -4.84  -3.77   +1.1,+0.0,-0.0
# iter:  34 07:51:42   -12.292595c  -5.04  -3.86   +1.1,+0.0,-0.0
# iter:  35 07:52:17   -12.292465c  -5.18  -3.85   +1.1,+0.0,-0.0
# iter:  36 07:52:52   -12.292465c  -5.31  -3.88   +1.1,+0.0,-0.0
# iter:  37 07:53:27   -12.292520c  -5.38  -3.88   +1.1,+0.0,+0.0
# iter:  38 07:54:02   -12.292573c  -5.55  -3.72   +1.1,+0.0,+0.0
# iter:  39 07:54:36   -12.292690c  -5.66  -3.76   +1.1,+0.0,+0.0
# iter:  40 07:55:11   -12.292711c  -5.68  -3.93   +1.1,+0.0,+0.0
# iter:  41 07:55:46   -12.292739c  -5.86  -4.17c  +1.1,+0.0,+0.0
# iter:  42 07:56:21   -12.292761c  -6.02  -4.09c  +1.1,+0.0,+0.0
# iter:  43 07:56:56   -12.292760c  -6.15  -4.19c  +1.1,+0.0,+0.0
# iter:  44 07:57:31   -12.292797c  -6.30  -4.47c  +1.1,+0.0,+0.0
# iter:  45 07:58:06   -12.292995c  -6.15  -4.48c  +1.1,+0.0,+0.0
# iter:  46 07:58:41   -12.293057c  -6.35  -4.60c  +1.1,+0.0,+0.0
# iter:  47 07:59:16   -12.293069c  -6.60  -4.67c  +1.1,+0.0,+0.0
# iter:  48 07:59:50   -12.293105c  -6.70  -4.81c  +1.1,+0.0,+0.0
# iter:  49 08:00:25   -12.293118c  -6.85  -4.99c  +1.1,+0.0,+0.0
# iter:  50 08:01:01   -12.293125c  -7.00  -5.05c  +1.1,+0.0,+0.0
# iter:  51 08:01:35   -12.293127c  -7.12  -5.22c  +1.1,+0.0,+0.0
# iter:  52 08:02:10   -12.293129c  -7.24  -5.25c  +1.1,+0.0,+0.0
# iter:  53 08:02:45   -12.293137c  -7.35  -5.29c  +1.1,+0.0,+0.0
# iter:  54 08:03:20   -12.293148c  -7.43c -5.47c  +1.1,+0.0,+0.0
scf_steps: 54
energies:  # eV
  coulomb:          -7.669294
  zero:              0.067429
  xc:              -14.872759
  external:          0.000000
  kinetic:          10.203283
  spinorbit:         0.000000
  entropy:          -0.043615
  total:           -12.314956
  extrapolated:    -12.293148

dipole moment: [-3.511412, -6.165128, -0.601560]  # |e|*Ang

total magnetic moment: [1.071823, 0.001746, 0.000000]

local magnetic moments: [
  [ 1.111893,  0.000000,  0.000000],  # Ni 0
  [-0.016588, -0.000016,  0.000000],  # I  1
  [ 0.010650, -0.012717,  0.000000]]  # I  2


Fermi level: -1.202 eV

kpt = [-0.455, -0.455, 0.000], weight = 0.008:
  Band      eig [eV]   occ [0-1]
     0       -64.941       1.000
   ...
    22        -3.012       1.000
    23        -2.818       1.000
    24        -2.782       1.000
    25        -2.342       1.000
    26        -2.121       1.000
    27        -2.104       1.000
    28        -1.840       0.998
    29        -1.783       0.997
    30        -0.958       0.080
    31        -0.898       0.046
    32         2.460       0.000
    33         2.616       0.000
    34         4.543       0.000
    35         4.672       0.000
    36         4.971       0.000
    37         5.194       0.000
   ...
    39         5.902       0.000

kpt = [-0.455, -0.364, 0.000], weight = 0.008:
  Band      eig [eV]   occ [0-1]
     0       -64.941       1.000
   ...
    22        -2.923       1.000
    23        -2.887       1.000
    24        -2.776       1.000
    25        -2.406       1.000
    26        -2.184       1.000
    27        -2.103       1.000
    28        -1.749       0.996
    29        -1.626       0.986
    30        -0.931       0.063
    31        -0.784       0.015
    32         2.147       0.000
    33         2.652       0.000
    34         4.178       0.000
    35         4.353       0.000
    36         4.776       0.000
    37         4.983       0.000
   ...
    39         5.506       0.000

kpt = [-0.455, -0.273, 0.000], weight = 0.008:
  Band      eig [eV]   occ [0-1]
     0       -64.941       1.000
   ...
    22        -2.981       1.000
    23        -2.868       1.000
    24        -2.741       1.000
    25        -2.385       1.000
    26        -2.235       1.000
    27        -2.079       1.000
    28        -1.650       0.989
    29        -1.458       0.928
    30        -0.923       0.058
    31        -0.672       0.005
    32         1.843       0.000
    33         2.490       0.000
    34         3.813       0.000
    35         4.147       0.000
    36         4.391       0.000
    37         4.615       0.000
   ...
    39         5.155       0.000
(only showing first 3 out of 121 k-points)

Gap: 0.412 eV
Transition (v -> c):
  (s=0, k=43, n=29, [-0.18, 0.45, 0.00]) -> (s=0, k=65, n=30, [0.00, 0.45, 0.00])
# Writing to gsq-15.gpw (mode='')

---

timing:  # [seconds]
  Total: 1909.565  # ━━━━━━━━━━━━━━━━━━━━━━━━━━━━━━━━━━━━━━━━━━━━━━━━━━━━━━━━
  Init:    20.639  # ╸
  SCF:   1886.663  # ━━━━━━━━━━━━━━━━━━━━━━━━━━━━━━━━━━━━━━━━━━━━━━━━━━━━━━━╸

Max RSS: 1645.785  # MiB
