#  __  _  _
# | _ |_)|_||  |
# |__||  | ||/\| - 24.1.0

User:   s194113@n-62-28-31
Date:   Tue Apr 23 01:13:10 2024
Arch:   x86_64
Pid:    26488
CWD:    /zhome/87/8/147075/10302/10302_NM/NiI2/E_con
Python: 3.8.5
gpaw:   /zhome/87/8/147075/venv-name/gpaw/gpaw (10808453a8)
_gpaw:  /zhome/87/8/147075/venv-name/gpaw/
        _gpaw.cpython-38-x86_64-linux-gnu.so (10808453a8)
ase:    /zhome/87/8/147075/venv-name/ase/ase (version 3.23.0b1-c36115a2db)
numpy:  /zhome/87/8/147075/venv-name/lib/python3.8/site-packages/numpy (version 1.24.4)
scipy:  /zhome/87/8/147075/venv-name/lib/python3.8/site-packages/scipy (version 1.10.1)
libxc:  4.3.4
units:  Angstrom and eV
cores: 12
OpenMP: False
OMP_NUM_THREADS: 1

---
input parameters:
  kpts: 
    density: 6.0
    gamma: True
  magmoms: [[1, 0, 0], [0, 0, 0], [0, 0, 0]]
  mixer: 
    backend: 'pulay'
    beta: 0.05
    method: 'sum'
    nmaxold: 5
    weight: 100
  mode: 
    name: 'pw'
    ecut: 1000
    qspiral: array([0.05, 0.  , 0.  ])
  parallel: 
    kpt: None
    domain: 1
    band: 1
    order: 'kdb'
    stridebands: False
    augment_grids: False
    sl_auto: False
    sl_default: None
    sl_diagonalize: None
    sl_inverse_cholesky: None
    sl_lcao: None
    sl_lrtddft: None
    use_elpa: False
    elpasolver: '2stage'
    buffer_size: None
    gpu: False
  symmetry: 
    point_group: False
    time_reversal: False
  xc: 
    name: 'LDA'

#                        
#                        
#                        
#                        
#                        
#              I         
#                        
#        Ni              
#          I             
#                        
#                        
#                        
#                        
#                        

atoms: [  # symbols, positions [Ang] and initial magnetic moments
  [ Ni, [   0.000000,    0.000000,    7.513573], [ 1.000,  0.000,  0.000]], # 0
  [  I, [   1.985000,    1.146040,    9.027147], [ 0.000,  0.000,  0.000]], # 1
  [  I, [  -0.000000,    2.292081,    6.000000], [ 0.000,  0.000,  0.000]]] # 2

cell: [  # Ang
#     x            y            z
  [   3.970000,    0.000000,    0.000000],
  [  -1.985000,    3.438121,    0.000000],
  [   0.000000,   -0.000000,   15.027147]]

periodic: [True      , True      , False     ]
lengths:  [  3.970000,   3.970000,  15.027147]  # Ang
angles:   [ 90.000000,  90.000000, 120.000000]

symmetry:
  number of symmetries: 1
  rotations: [
    [[ 1,  0,  0], [ 0,  1,  0], [ 0,  0,  1]]]

bz sampling:
  number of bz points: 121
  number of ibz points: 121
  monkhorst-pack size: [11, 11, 1]
  monkhorst-pack shift: [0, 0, 0]
  points and weights: [
    [[ -0.45454545,  -0.45454545,   0.00000000], 0.00826446],  # 0
    [[ -0.45454545,  -0.36363636,   0.00000000], 0.00826446],  # 1
    [[ -0.45454545,  -0.27272727,   0.00000000], 0.00826446],  # 2
    [[ -0.45454545,  -0.18181818,   0.00000000], 0.00826446],  # 3
    [[ -0.45454545,  -0.09090909,   0.00000000], 0.00826446],  # 4
    [[ -0.45454545,   0.00000000,   0.00000000], 0.00826446],  # 5
    [[ -0.45454545,   0.09090909,   0.00000000], 0.00826446],  # 6
    [[ -0.45454545,   0.18181818,   0.00000000], 0.00826446],  # 7
    [[ -0.45454545,   0.27272727,   0.00000000], 0.00826446],  # 8
    [[ -0.45454545,   0.36363636,   0.00000000], 0.00826446],  # 9
    # ...
    [[  0.45454545,   0.45454545,   0.00000000], 0.00826446]]  # 120

plane wave coefficients: 14746
cutoff: 1000.0 eV

spin-components: 4  # (non-collinear spins)
bands: 40
valence electrons: 30.0
spin-degeneracy: 1
dtype: complex128

memory:
    wave functions: 2_283_860_480  # bytes  (190_321_706 per core)

parallelization:
    kpt:    12
    domain: 1
    band:   1

density:
  components: 4
  grid points: [ 30  30 112]
  charge: 0.0  # |e|

potential:
  grid points: [ 30  30 112]

species:
  Ni:
    name: Nickel
    id: 1802175e8de9ea26d9f4394ec1a7d564
    Z: 28.0
    valence: 16
    core: 12
    charge: 0.0
    file: /zhome/86/d/1666/PAW/gpaw-setups-0.9.20000/Ni.LDA.gz
    compensation charges: {type: gauss,
                           rc: 0.36,
                           lmax: 2}
    cutoffs: {filter: 2.14,
              core: 1.98}
    valence states:
      #              energy  rcut
      - 4s(2.00)    -5.858   1.164
      - 3p(6.00)   -71.266   1.207
      - 4p(0.00)    -1.338   1.207
      - 3d(8.00)    -9.141   1.138
      -  s          21.353   1.164
      -  d          18.071   1.138
  
    # Using partial waves for Ni as LCAO basis

  I:
    name: Iodine
    id: b559721c0c096a7b4c8fc0e0f4de5cf4
    Z: 53.0
    valence: 7
    core: 46
    charge: 0.0
    file: /zhome/86/d/1666/PAW/gpaw-setups-0.9.20000/I.LDA.gz
    compensation charges: {type: gauss,
                           rc: 0.37,
                           lmax: 2}
    cutoffs: {filter: 2.06,
              core: 2.90}
    valence states:
      #              energy  rcut
      - 5s(2.00)   -17.626   1.164
      - 5p(5.00)    -7.241   1.164
      -  s           9.585   1.164
      -  p          19.970   1.164
      -  d           0.000   1.164
  
    # Using partial waves for I as LCAO basis

Reference energy: -428067.566327  # eV

eigensolver:
  name: 'Davidson'
  niter: 2
  converge_bands: 'occupied'
Density mixing:
  Method: sum
  Backend: pulay
  Linear mixing parameter: 0.05
  old densities: 5
  Damping of long wavelength oscillations: 100
occupation numbers:
  Fermi-Dirac:
    width: 0.1000  # eV
  

poisson solver:
  ecut: 8000.0  # eV

xc functional:
  name: None

convergence criteria:
- Maximum [total energy] change in last 3 cyles: 0.0005 eV / valence electron
- Maximum integral of absolute [dens]ity change: 0.0001 electrons / valence electron
- Maximum integral of absolute [eigenst]ate change: 4e-08 eV^2 / valence electron
maximum number of iterations: 333

#      iter     time        total  log10-change:
#                          energy   eigst   dens
# iter:   1 01:14:03   -13.979735                  +1.0,+0.0,+0.0
# iter:   2 01:14:38   -12.697712   -0.51  -1.31   +1.0,+0.0,+0.0
# iter:   3 01:15:13   -12.233331   -0.71  -1.45   +1.2,+0.0,+0.0
# iter:   4 01:15:48   -12.283149   -1.30  -1.68   +1.4,+0.0,-0.0
# iter:   5 01:16:23   -12.554094   -1.43  -1.65   +1.4,+0.0,+0.0
# iter:   6 01:16:58   -12.284746   -1.66  -1.72   +1.5,+0.0,-0.0
# iter:   7 01:17:33   -12.278362   -2.09  -2.19   +1.5,+0.0,+0.0
# iter:   8 01:18:08   -12.283559c  -2.35  -2.32   +1.6,+0.0,+0.0
# iter:   9 01:18:43   -12.283458c  -2.52  -2.51   +1.7,+0.0,-0.0
# iter:  10 01:19:18   -12.283774c  -2.82  -2.97   +1.7,+0.0,-0.0
# iter:  11 01:19:53   -12.289872c  -3.00  -2.93   +1.7,+0.0,-0.0
# iter:  12 01:20:28   -12.289891c  -3.23  -3.06   +1.7,+0.0,-0.0
# iter:  13 01:21:03   -12.291761c  -3.41  -3.01   +1.7,+0.0,-0.0
# iter:  14 01:21:37   -12.291688c  -3.59  -3.02   +1.7,+0.0,-0.0
# iter:  15 01:22:12   -12.289964c  -3.57  -3.02   +1.7,+0.0,+0.0
# iter:  16 01:22:47   -12.290498c  -3.93  -3.44   +1.8,+0.0,+0.0
# iter:  17 01:23:22   -12.291842c  -4.10  -3.49   +1.8,+0.0,+0.0
# iter:  18 01:23:57   -12.292016c  -4.21  -3.53   +1.8,+0.0,+0.0
# iter:  19 01:24:32   -12.292068c  -4.47  -3.88   +1.8,+0.0,+0.0
# iter:  20 01:25:07   -12.292135c  -4.64  -3.88   +1.8,+0.0,+0.0
# iter:  21 01:25:41   -12.292086c  -4.79  -3.87   +1.8,+0.0,+0.0
# iter:  22 01:26:16   -12.292325c  -4.92  -3.87   +1.8,+0.0,+0.0
# iter:  23 01:26:51   -12.292303c  -5.10  -3.85   +1.8,+0.0,+0.0
# iter:  24 01:27:26   -12.292425c  -5.27  -3.86   +1.8,+0.0,+0.0
# iter:  25 01:28:01   -12.292395c  -5.43  -3.85   +1.8,+0.0,+0.0
# iter:  26 01:28:35   -12.292424c  -5.59  -3.84   +1.8,+0.0,+0.0
# iter:  27 01:29:10   -12.292460c  -5.76  -3.85   +1.8,+0.0,+0.0
# iter:  28 01:29:44   -12.292498c  -5.92  -3.85   +1.8,+0.0,+0.0
# iter:  29 01:30:19   -12.292619c  -6.06  -3.85   +1.8,+0.0,+0.0
# iter:  30 01:30:53   -12.292708c  -6.24  -3.86   +1.8,+0.0,+0.0
# iter:  31 01:31:28   -12.292643c  -6.43  -3.86   +1.8,+0.0,+0.0
# iter:  32 01:32:02   -12.292627c  -6.54  -3.86   +1.8,+0.0,+0.0
# iter:  33 01:32:36   -12.292642c  -6.72  -3.86   +1.8,+0.0,+0.0
# iter:  34 01:33:11   -12.292822c  -6.60  -3.87   +1.8,+0.0,+0.0
# iter:  35 01:33:45   -12.292890c  -6.98  -3.87   +1.8,+0.0,+0.0
# iter:  36 01:34:19   -12.293014c  -6.91  -3.87   +1.8,+0.0,+0.0
# iter:  37 01:34:54   -12.292958c  -7.35  -3.86   +1.8,+0.0,+0.0
# iter:  38 01:35:28   -12.293292c  -6.29  -3.89   +1.8,+0.0,+0.0
# iter:  39 01:36:03   -12.293190c  -6.72  -4.00   +1.8,+0.0,+0.0
# iter:  40 01:36:37   -12.293360c  -6.81  -4.23c  +1.8,+0.0,+0.0
# iter:  41 01:37:12   -12.293415c  -6.96  -4.33c  +1.8,+0.0,+0.0
# iter:  42 01:37:46   -12.293430c  -7.54c -4.41c  +1.8,+0.0,+0.0
scf_steps: 42
energies:  # eV
  coulomb:          -7.997952
  zero:              0.065530
  xc:              -14.952080
  external:          0.000000
  kinetic:          10.617236
  spinorbit:         0.000000
  entropy:          -0.052325
  total:           -12.319593
  extrapolated:    -12.293430

dipole moment: [-4.297972, -7.438905, -6.344355]  # |e|*Ang

total magnetic moment: [1.805273, 0.007806, 0.000000]

local magnetic moments: [
  [ 1.144384,  0.000000,  0.000000],  # Ni 0
  [ 0.177503, -0.037739,  0.000000],  # I  1
  [ 0.180477, -0.018960,  0.000000]]  # I  2


Fermi level: -1.184 eV

kpt = [-0.455, -0.455, 0.000], weight = 0.008:
  Band      eig [eV]   occ [0-1]
     0       -64.976       1.000
   ...
    22        -3.134       1.000
    23        -3.005       1.000
    24        -2.901       1.000
    25        -2.295       1.000
    26        -2.163       1.000
    27        -2.131       1.000
    28        -1.617       0.987
    29        -1.581       0.981
    30        -0.677       0.006
    31        -0.672       0.006
    32         1.677       0.000
    33         2.013       0.000
    34         3.840       0.000
    35         4.256       0.000
    36         4.588       0.000
    37         4.685       0.000
   ...
    39         4.882       0.000

kpt = [-0.455, -0.364, 0.000], weight = 0.008:
  Band      eig [eV]   occ [0-1]
     0       -64.976       1.000
   ...
    22        -3.069       1.000
    23        -2.946       1.000
    24        -2.791       1.000
    25        -2.246       1.000
    26        -2.140       1.000
    27        -2.044       1.000
    28        -1.901       0.999
    29        -1.660       0.992
    30        -0.935       0.077
    31        -0.712       0.009
    32         2.207       0.000
    33         2.498       0.000
    34         4.435       0.000
    35         4.628       0.000
    36         4.895       0.000
    37         5.023       0.000
   ...
    39         5.429       0.000

kpt = [-0.455, -0.273, 0.000], weight = 0.008:
  Band      eig [eV]   occ [0-1]
     0       -64.976       1.000
   ...
    22        -3.055       1.000
    23        -2.917       1.000
    24        -2.731       1.000
    25        -2.239       1.000
    26        -2.132       1.000
    27        -2.057       1.000
    28        -1.986       1.000
    29        -1.689       0.994
    30        -1.050       0.208
    31        -0.736       0.011
    32         2.524       0.000
    33         2.750       0.000
    34         4.220       0.000
    35         4.469       0.000
    36         5.287       0.000
    37         5.447       0.000
   ...
    39         5.998       0.000
(only showing first 3 out of 121 k-points)

No gap
# Writing to gsq-01.gpw (mode='')

---

timing:  # [seconds]
  Total: 1476.672  # ━━━━━━━━━━━━━━━━━━━━━━━━━━━━━━━━━━━━━━━━━━━━━━━━━━━━━━━━
  Init:    20.745  # ━
  SCF:   1454.756  # ━━━━━━━━━━━━━━━━━━━━━━━━━━━━━━━━━━━━━━━━━━━━━━━━━━━━━━━

Max RSS: 716.238  # MiB
