#  __  _  _
# | _ |_)|_||  |
# |__||  | ||/\| - 24.1.0

User:   s194113@n-62-28-31
Date:   Tue Apr 23 02:22:30 2024
Arch:   x86_64
Pid:    26488
CWD:    /zhome/87/8/147075/10302/10302_NM/NiI2/E_con
Python: 3.8.5
gpaw:   /zhome/87/8/147075/venv-name/gpaw/gpaw (10808453a8)
_gpaw:  /zhome/87/8/147075/venv-name/gpaw/
        _gpaw.cpython-38-x86_64-linux-gnu.so (10808453a8)
ase:    /zhome/87/8/147075/venv-name/ase/ase (version 3.23.0b1-c36115a2db)
numpy:  /zhome/87/8/147075/venv-name/lib/python3.8/site-packages/numpy (version 1.24.4)
scipy:  /zhome/87/8/147075/venv-name/lib/python3.8/site-packages/scipy (version 1.10.1)
libxc:  4.3.4
units:  Angstrom and eV
cores: 12
OpenMP: False
OMP_NUM_THREADS: 1

---
input parameters:
  kpts: 
    density: 6.0
    gamma: True
  magmoms: [[1, 0, 0], [0, 0, 0], [0, 0, 0]]
  mixer: 
    backend: 'pulay'
    beta: 0.05
    method: 'sum'
    nmaxold: 5
    weight: 100
  mode: 
    name: 'pw'
    ecut: 1000
    qspiral: array([0.2, 0. , 0. ])
  parallel: 
    kpt: None
    domain: 1
    band: 1
    order: 'kdb'
    stridebands: False
    augment_grids: False
    sl_auto: False
    sl_default: None
    sl_diagonalize: None
    sl_inverse_cholesky: None
    sl_lcao: None
    sl_lrtddft: None
    use_elpa: False
    elpasolver: '2stage'
    buffer_size: None
    gpu: False
  symmetry: 
    point_group: False
    time_reversal: False
  xc: 
    name: 'LDA'

#                        
#                        
#                        
#                        
#                        
#              I         
#                        
#        Ni              
#          I             
#                        
#                        
#                        
#                        
#                        

atoms: [  # symbols, positions [Ang] and initial magnetic moments
  [ Ni, [   0.000000,    0.000000,    7.513573], [ 1.000,  0.000,  0.000]], # 0
  [  I, [   1.985000,    1.146040,    9.027147], [ 0.000,  0.000,  0.000]], # 1
  [  I, [  -0.000000,    2.292081,    6.000000], [ 0.000,  0.000,  0.000]]] # 2

cell: [  # Ang
#     x            y            z
  [   3.970000,    0.000000,    0.000000],
  [  -1.985000,    3.438121,    0.000000],
  [   0.000000,   -0.000000,   15.027147]]

periodic: [True      , True      , False     ]
lengths:  [  3.970000,   3.970000,  15.027147]  # Ang
angles:   [ 90.000000,  90.000000, 120.000000]

symmetry:
  number of symmetries: 1
  rotations: [
    [[ 1,  0,  0], [ 0,  1,  0], [ 0,  0,  1]]]

bz sampling:
  number of bz points: 121
  number of ibz points: 121
  monkhorst-pack size: [11, 11, 1]
  monkhorst-pack shift: [0, 0, 0]
  points and weights: [
    [[ -0.45454545,  -0.45454545,   0.00000000], 0.00826446],  # 0
    [[ -0.45454545,  -0.36363636,   0.00000000], 0.00826446],  # 1
    [[ -0.45454545,  -0.27272727,   0.00000000], 0.00826446],  # 2
    [[ -0.45454545,  -0.18181818,   0.00000000], 0.00826446],  # 3
    [[ -0.45454545,  -0.09090909,   0.00000000], 0.00826446],  # 4
    [[ -0.45454545,   0.00000000,   0.00000000], 0.00826446],  # 5
    [[ -0.45454545,   0.09090909,   0.00000000], 0.00826446],  # 6
    [[ -0.45454545,   0.18181818,   0.00000000], 0.00826446],  # 7
    [[ -0.45454545,   0.27272727,   0.00000000], 0.00826446],  # 8
    [[ -0.45454545,   0.36363636,   0.00000000], 0.00826446],  # 9
    # ...
    [[  0.45454545,   0.45454545,   0.00000000], 0.00826446]]  # 120

plane wave coefficients: 14746
cutoff: 1000.0 eV

spin-components: 4  # (non-collinear spins)
bands: 40
valence electrons: 30.0
spin-degeneracy: 1
dtype: complex128

memory:
    wave functions: 2_283_860_480  # bytes  (190_321_706 per core)

parallelization:
    kpt:    12
    domain: 1
    band:   1

density:
  components: 4
  grid points: [ 30  30 112]
  charge: 0.0  # |e|

potential:
  grid points: [ 30  30 112]

species:
  Ni:
    name: Nickel
    id: 1802175e8de9ea26d9f4394ec1a7d564
    Z: 28.0
    valence: 16
    core: 12
    charge: 0.0
    file: /zhome/86/d/1666/PAW/gpaw-setups-0.9.20000/Ni.LDA.gz
    compensation charges: {type: gauss,
                           rc: 0.36,
                           lmax: 2}
    cutoffs: {filter: 2.14,
              core: 1.98}
    valence states:
      #              energy  rcut
      - 4s(2.00)    -5.858   1.164
      - 3p(6.00)   -71.266   1.207
      - 4p(0.00)    -1.338   1.207
      - 3d(8.00)    -9.141   1.138
      -  s          21.353   1.164
      -  d          18.071   1.138
  
    # Using partial waves for Ni as LCAO basis

  I:
    name: Iodine
    id: b559721c0c096a7b4c8fc0e0f4de5cf4
    Z: 53.0
    valence: 7
    core: 46
    charge: 0.0
    file: /zhome/86/d/1666/PAW/gpaw-setups-0.9.20000/I.LDA.gz
    compensation charges: {type: gauss,
                           rc: 0.37,
                           lmax: 2}
    cutoffs: {filter: 2.06,
              core: 2.90}
    valence states:
      #              energy  rcut
      - 5s(2.00)   -17.626   1.164
      - 5p(5.00)    -7.241   1.164
      -  s           9.585   1.164
      -  p          19.970   1.164
      -  d           0.000   1.164
  
    # Using partial waves for I as LCAO basis

Reference energy: -428067.566327  # eV

eigensolver:
  name: 'Davidson'
  niter: 2
  converge_bands: 'occupied'
Density mixing:
  Method: sum
  Backend: pulay
  Linear mixing parameter: 0.05
  old densities: 5
  Damping of long wavelength oscillations: 100
occupation numbers:
  Fermi-Dirac:
    width: 0.1000  # eV
  

poisson solver:
  ecut: 8000.0  # eV

xc functional:
  name: None

convergence criteria:
- Maximum [total energy] change in last 3 cyles: 0.0005 eV / valence electron
- Maximum integral of absolute [dens]ity change: 0.0001 electrons / valence electron
- Maximum integral of absolute [eigenst]ate change: 4e-08 eV^2 / valence electron
maximum number of iterations: 333

#      iter     time        total  log10-change:
#                          energy   eigst   dens
# iter:   1 02:23:23   -13.841375                  +1.0,+0.0,+0.0
# iter:   2 02:23:58   -12.688725   -0.28  -1.31   +1.0,+0.0,+0.0
# iter:   3 02:24:33   -12.242491   -0.64  -1.45   +1.2,+0.0,+0.0
# iter:   4 02:25:08   -12.305180   -1.35  -1.68   +1.3,+0.0,-0.0
# iter:   5 02:25:42   -12.540488   -1.48  -1.66   +1.4,+0.0,-0.0
# iter:   6 02:26:17   -12.334631   -1.75  -1.76   +1.4,+0.0,+0.0
# iter:   7 02:26:52   -12.313351   -2.06  -2.11   +1.5,+0.0,+0.0
# iter:   8 02:27:27   -12.308742   -2.29  -2.31   +1.5,+0.0,-0.0
# iter:   9 02:28:01   -12.310627c  -2.52  -2.70   +1.6,+0.0,+0.0
# iter:  10 02:28:36   -12.312050c  -2.77  -2.98   +1.6,+0.0,+0.0
# iter:  11 02:29:11   -12.312963c  -2.87  -3.02   +1.6,+0.0,-0.0
# iter:  12 02:29:46   -12.314536c  -3.14  -2.98   +1.6,+0.0,-0.0
# iter:  13 02:30:21   -12.314670c  -3.30  -3.50   +1.6,+0.0,-0.0
# iter:  14 02:30:56   -12.314759c  -3.46  -3.73   +1.6,+0.0,-0.0
# iter:  15 02:31:31   -12.316050c  -3.59  -3.78   +1.6,+0.0,-0.0
# iter:  16 02:32:06   -12.316115c  -3.76  -3.88   +1.6,+0.0,-0.0
# iter:  17 02:32:41   -12.316138c  -3.91  -4.24c  +1.6,+0.0,-0.0
# iter:  18 02:33:16   -12.316132c  -4.06  -4.26c  +1.6,+0.0,+0.0
# iter:  19 02:33:50   -12.316278c  -4.21  -4.19c  +1.6,+0.0,-0.0
# iter:  20 02:34:25   -12.316212c  -4.36  -4.29c  +1.6,+0.0,-0.0
# iter:  21 02:35:00   -12.316211c  -4.50  -4.43c  +1.6,+0.0,+0.0
# iter:  22 02:35:35   -12.316280c  -4.64  -4.52c  +1.6,+0.0,+0.0
# iter:  23 02:36:10   -12.316321c  -4.78  -4.60c  +1.6,+0.0,-0.0
# iter:  24 02:36:45   -12.316389c  -4.92  -4.65c  +1.6,+0.0,+0.0
# iter:  25 02:37:20   -12.316366c  -5.07  -4.91c  +1.6,+0.0,-0.0
# iter:  26 02:37:55   -12.316360c  -5.21  -5.10c  +1.6,+0.0,-0.0
# iter:  27 02:38:30   -12.316360c  -5.35  -5.18c  +1.6,+0.0,+0.0
# iter:  28 02:39:05   -12.316355c  -5.49  -5.23c  +1.6,+0.0,+0.0
# iter:  29 02:39:40   -12.316357c  -5.63  -5.30c  +1.6,+0.0,+0.0
# iter:  30 02:40:15   -12.316361c  -5.78  -5.39c  +1.6,+0.0,+0.0
# iter:  31 02:40:50   -12.316364c  -5.92  -5.42c  +1.6,+0.0,+0.0
# iter:  32 02:41:24   -12.316363c  -6.06  -5.44c  +1.6,+0.0,+0.0
# iter:  33 02:41:59   -12.316357c  -6.20  -5.54c  +1.6,+0.0,+0.0
# iter:  34 02:42:34   -12.316354c  -6.34  -5.61c  +1.6,+0.0,+0.0
# iter:  35 02:43:08   -ter:  35 02:14:59   -12.316330c  -6.51  -5.90c  +1.6,+0.0,-0.0
# iter:  36 02:15:26   -12.316330c  -6.65  -6.03c  +1.6,+0.0,-0.0
# iter:  37 02:15:53   -12.316330c  -6.79  -6.02c  +1.6,+0.0,-0.0
# iter:  38 02:16:20   -12.316330c  -6.92  -5.97c  +1.6,+0.0,-0.0
# iter:  39 02:16:48   -12.316334c  -7.06  -6.10c  +1.6,+0.0,-0.0
# iter:  40 02:17:15   -12.316333c  -7.20  -6.17c  +1.6,+0.0,-0.0
# iter:  41 02:17:42   -12.316333c  -7.34  -6.41c  +1.6,+0.0,-0.0
# iter:  42 02:18:09   -12.316333c  -7.48c -6.46c  +1.6,+0.0,-0.0
scf_steps: 42
energies:  # eV
  coulomb:          -7.697336
  zero:              0.067449
  xc:              -14.907982
  external:          0.000000
  kinetic:          10.240739
  spinorbit:         0.000000
  entropy:          -0.038406
  total:           -12.335536
  extrapolated:    -12.316333

dipole moment: [-4.094153, -7.080806, -4.984213]  # |e|*Ang

total magnetic moment: [1.638790, 0.023372, -0.000000]

local magnetic moments: [
  [ 1.135286, -0.000000, -0.000000],  # Ni 0
  [ 0.097362, -0.113659, -0.000000],  # I  1
  [ 0.138183, -0.057474, -0.000000]]  # I  2


Fermi level: -1.179 eV

kpt = [-0.455, -0.455, 0.000], weight = 0.008:
  Band      eig [eV]   occ [0-1]
     0       -64.960       1.000
   ...
    22        -3.094       1.000
    23        -2.974       1.000
    24        -2.867       1.000
    25        -2.289       1.000
    26        -2.160       1.000
    27        -2.106       1.000
    28        -1.718       0.995
    29        -1.600       0.985
    30        -0.739       0.012
    31        -0.671       0.006
    32         1.604       0.000
    33         2.413       0.000
    34         3.643       0.000
    35         4.429       0.000
    36         4.511       0.000
    37         4.846       0.000
   ...
    39         5.364       0.000

kpt = [-0.455, -0.364, 0.000], weight = 0.008:
  Band      eig [eV]   occ [0-1]
     0       -64.960       1.000
   ...
    22        -3.035       1.000
    23        -2.910       1.000
    24        -2.815       1.000
    25        -2.280       1.000
    26        -2.132       1.000
    27        -2.077       1.000
    28        -1.764       0.997
    29        -1.710       0.995
    30        -0.844       0.034
    31        -0.754       0.014
    32         1.928       0.000
    33         2.591       0.000
    34         3.993       0.000
    35         4.490       0.000
    36         4.771       0.000
    37         4.975       0.000
   ...
    39         5.687       0.000

kpt = [-0.455, -0.273, 0.000], weight = 0.008:
  Band      eig [eV]   occ [0-1]
     0       -64.960       1.000
   ...
    22        -2.980       1.000
    23        -2.911       1.000
    24        -2.724       1.000
    25        -2.274       1.000
    26        -2.137       1.000
    27        -2.045       1.000
    28        -1.888       0.999
    29        -1.705       0.995
    30        -0.996       0.139
    31        -0.774       0.017
    32         2.497       0.000
    33         2.675       0.000
    34         4.154       0.000
    35         4.751       0.000
    36         4.875       0.000
    37         4.989       0.000
   ...
    39         5.640       0.000
(only showing first 3 out of 121 k-points)

Gap: 0.194 eV
Transition (v -> c):
  (s=0, k=60, n=29, [0.00, 0.00, 0.00]) -> (s=0, k=24, n=30, [-0.27, -0.27, 0.00])
# Writing to gsq-04.gpw (mode='')

---

timing:  # [seconds]
  Total: 3561.278  # ━━━━━━━━━━━━━━━━━━━━━━━━━━━━━━━━━━━━━━━━━━━━━━━━━━━━━━━━
  Init:    16.322  # ╸
  SCF:   1139.111  # ━━━━━━━━━━━━━━━━━━

Max RSS: 1053.266  # MiB
━━━━━━━━━━━━━━━━━━━━

Max RSS: 1057.555  # MiB
