#  __  _  _
# | _ |_)|_||  |
# |__||  | ||/\| - 24.1.0

User:   s194113@n-62-28-31
Date:   Tue Apr 23 12:22:45 2024
Arch:   x86_64
Pid:    26488
CWD:    /zhome/87/8/147075/10302/10302_NM/NiI2/E_con
Python: 3.8.5
gpaw:   /zhome/87/8/147075/venv-name/gpaw/gpaw (10808453a8)
_gpaw:  /zhome/87/8/147075/venv-name/gpaw/
        _gpaw.cpython-38-x86_64-linux-gnu.so (10808453a8)
ase:    /zhome/87/8/147075/venv-name/ase/ase (version 3.23.0b1-c36115a2db)
numpy:  /zhome/87/8/147075/venv-name/lib/python3.8/site-packages/numpy (version 1.24.4)
scipy:  /zhome/87/8/147075/venv-name/lib/python3.8/site-packages/scipy (version 1.10.1)
libxc:  4.3.4
units:  Angstrom and eV
cores: 12
OpenMP: False
OMP_NUM_THREADS: 1

---
input parameters:
  kpts: 
    density: 6.0
    gamma: True
  magmoms: [[1, 0, 0], [0, 0, 0], [0, 0, 0]]
  mixer: 
    backend: 'pulay'
    beta: 0.05
    method: 'sum'
    nmaxold: 5
    weight: 100
  mode: 
    name: 'pw'
    ecut: 1000
    qspiral: array([0.11904762, 0.11904762, 0.        ])
  parallel: 
    kpt: None
    domain: 1
    band: 1
    order: 'kdb'
    stridebands: False
    augment_grids: False
    sl_auto: False
    sl_default: None
    sl_diagonalize: None
    sl_inverse_cholesky: None
    sl_lcao: None
    sl_lrtddft: None
    use_elpa: False
    elpasolver: '2stage'
    buffer_size: None
    gpu: False
  symmetry: 
    point_group: False
    time_reversal: False
  xc: 
    name: 'LDA'

#                        
#                        
#                        
#                        
#                        
#              I         
#                        
#        Ni              
#          I             
#                        
#                        
#                        
#                        
#                        

atoms: [  # symbols, positions [Ang] and initial magnetic moments
  [ Ni, [   0.000000,    0.000000,    7.513573], [ 1.000,  0.000,  0.000]], # 0
  [  I, [   1.985000,    1.146040,    9.027147], [ 0.000,  0.000,  0.000]], # 1
  [  I, [  -0.000000,    2.292081,    6.000000], [ 0.000,  0.000,  0.000]]] # 2

cell: [  # Ang
#     x            y            z
  [   3.970000,    0.000000,    0.000000],
  [  -1.985000,    3.438121,    0.000000],
  [   0.000000,   -0.000000,   15.027147]]

periodic: [True      , True      , False     ]
lengths:  [  3.970000,   3.970000,  15.027147]  # Ang
angles:   [ 90.000000,  90.000000, 120.000000]

symmetry:
  number of symmetries: 1
  rotations: [
    [[ 1,  0,  0], [ 0,  1,  0], [ 0,  0,  1]]]

bz sampling:
  number of bz points: 121
  number of ibz points: 121
  monkhorst-pack size: [11, 11, 1]
  monkhorst-pack shift: [0, 0, 0]
  points and weights: [
    [[ -0.45454545,  -0.45454545,   0.00000000], 0.00826446],  # 0
    [[ -0.45454545,  -0.36363636,   0.00000000], 0.00826446],  # 1
    [[ -0.45454545,  -0.27272727,   0.00000000], 0.00826446],  # 2
    [[ -0.45454545,  -0.18181818,   0.00000000], 0.00826446],  # 3
    [[ -0.45454545,  -0.09090909,   0.00000000], 0.00826446],  # 4
    [[ -0.45454545,   0.00000000,   0.00000000], 0.00826446],  # 5
    [[ -0.45454545,   0.09090909,   0.00000000], 0.00826446],  # 6
    [[ -0.45454545,   0.18181818,   0.00000000], 0.00826446],  # 7
    [[ -0.45454545,   0.27272727,   0.00000000], 0.00826446],  # 8
    [[ -0.45454545,   0.36363636,   0.00000000], 0.00826446],  # 9
    # ...
    [[  0.45454545,   0.45454545,   0.00000000], 0.00826446]]  # 120

plane wave coefficients: 14746
cutoff: 1000.0 eV

spin-components: 4  # (non-collinear spins)
bands: 40
valence electrons: 30.0
spin-degeneracy: 1
dtype: complex128

memory:
    wave functions: 2_283_860_480  # bytes  (190_321_706 per core)

parallelization:
    kpt:    12
    domain: 1
    band:   1

density:
  components: 4
  grid points: [ 30  30 112]
  charge: 0.0  # |e|

potential:
  grid points: [ 30  30 112]

species:
  Ni:
    name: Nickel
    id: 1802175e8de9ea26d9f4394ec1a7d564
    Z: 28.0
    valence: 16
    core: 12
    charge: 0.0
    file: /zhome/86/d/1666/PAW/gpaw-setups-0.9.20000/Ni.LDA.gz
    compensation charges: {type: gauss,
                           rc: 0.36,
                           lmax: 2}
    cutoffs: {filter: 2.14,
              core: 1.98}
    valence states:
      #              energy  rcut
      - 4s(2.00)    -5.858   1.164
      - 3p(6.00)   -71.266   1.207
      - 4p(0.00)    -1.338   1.207
      - 3d(8.00)    -9.141   1.138
      -  s          21.353   1.164
      -  d          18.071   1.138
  
    # Using partial waves for Ni as LCAO basis

  I:
    name: Iodine
    id: b559721c0c096a7b4c8fc0e0f4de5cf4
    Z: 53.0
    valence: 7
    core: 46
    charge: 0.0
    file: /zhome/86/d/1666/PAW/gpaw-setups-0.9.20000/I.LDA.gz
    compensation charges: {type: gauss,
                           rc: 0.37,
                           lmax: 2}
    cutoffs: {filter: 2.06,
              core: 2.90}
    valence states:
      #              energy  rcut
      - 5s(2.00)   -17.626   1.164
      - 5p(5.00)    -7.241   1.164
      -  s           9.585   1.164
      -  p          19.970   1.164
      -  d           0.000   1.164
  
    # Using partial waves for I as LCAO basis

Reference energy: -428067.566327  # eV

eigensolver:
  name: 'Davidson'
  niter: 2
  converge_bands: 'occupied'
Density mixing:
  Method: sum
  Backend: pulay
  Linear mixing parameter: 0.05
  old densities: 5
  Damping of long wavelength oscillations: 100
occupation numbers:
  Fermi-Dirac:
    width: 0.1000  # eV
  

poisson solver:
  ecut: 8000.0  # eV

xc functional:
  name: None

convergence criteria:
- Maximum [total energy] change in last 3 cyles: 0.0005 eV / valence electron
- Maximum integral of absolute [dens]ity change: 0.0001 electrons / valence electron
- Maximum integral of absolute [eigenst]ate change: 4e-08 eV^2 / valence electron
maximum number of iterations: 333

#      iter     time        total  log10-change:
#                          energy   eigst   dens
# iter:   1 12:23:38   -13.831167                  +1.0,+0.0,+0.0
# iter:   2 12:24:13   -12.688159   -0.26  -1.31   +1.0,+0.0,-0.0
# iter:   3 12:24:48   -12.244200   -0.63  -1.45   +1.2,+0.0,+0.0
# iter:   4 12:25:23   -12.317721   -1.33  -1.68   +1.3,+0.0,+0.0
# iter:   5 12:25:58   -12.536903   -1.49  -1.65   +1.4,+0.0,+0.0
# iter:   6 12:26:33   -12.325039   -1.71  -1.77   +1.4,+0.0,+0.0
# iter:   7 12:27:07   -12.315589   -2.08  -2.16   +1.5,+0.0,+0.0
# iter:   8 12:27:43   -12.310900c  -2.29  -2.31   +1.5,+0.0,+0.0
# iter:   9 12:28:17   -12.311721c  -2.52  -2.70   +1.5,+0.0,+0.0
# iter:  10 12:28:53   -12.312609c  -2.76  -2.98   +1.5,+0.0,+0.0
# iter:  11 12:29:27   -12.315674c  -2.95  -2.91   +1.6,+0.0,+0.0
# iter:  12 12:30:02   -12.316183c  -3.10  -3.42   +1.6,+0.0,+0.0
# iter:  13 12:30:37   -12.316270c  -3.29  -3.66   +1.6,+0.0,+0.0
# iter:  14 12:31:12   -12.316317c  -3.44  -3.74   +1.6,+0.0,+0.0
# iter:  15 12:31:46   -12.316310c  -3.59  -3.75   +1.6,+0.0,+0.0
# iter:  16 12:32:21   -12.316619c  -3.73  -3.75   +1.6,+0.0,+0.0
# iter:  17 12:32:56   -12.316406c  -3.88  -3.71   +1.6,+0.0,+0.0
# iter:  18 12:33:31   -12.317181c  -4.01  -3.72   +1.6,+0.0,+0.0
# iter:  19 12:34:06   -12.317112c  -4.17  -3.81   +1.6,+0.0,+0.0
# iter:  20 12:34:40   -12.317284c  -4.31  -3.84   +1.6,+0.0,+0.0
# iter:  21 12:35:15   -12.317453c  -4.45  -3.86   +1.6,+0.0,+0.0
# iter:  22 12:35:50   -12.317616c  -4.60  -3.92   +1.6,+0.0,+0.0
# iter:  23 12:36:25   -12.317854c  -4.74  -3.97   +1.6,+0.0,+0.0
# iter:  24 12:37:00   -12.317866c  -4.90  -4.10c  +1.6,+0.0,+0.0
# iter:  25 12:37:35   -12.317864c  -5.05  -4.14c  +1.6,+0.0,+0.0
# iter:  26 12:38:09   -12.317831c  -5.19  -4.17c  +1.6,+0.0,+0.0
# iter:  27 12:38:44   -12.317815c  -5.34  -4.24c  +1.6,+0.0,+0.0
# iter:  28 12:39:19   -12.317971c  -5.45  -4.30c  +1.6,+0.0,+0.0
# iter:  29 12:39:53   -12.317985c  -5.60  -4.41c  +1.6,+0.0,+0.0
# iter:  30 12:40:28   -12.317996c  -5.75  -4.54c  +1.6,+0.0,+0.0
# iter:  31 12:41:03   -12.317934c  -5.87  -4.55c  +1.6,+0.0,+0.0
# iter:  32 12:41:38   -12.317919c  -6.04  -4.81c  +1.6,+0.0,+0.0
# iter:  33 12:42:12   -12.317896c  -6.17  -4.96c  +1.6,+0.0,+0.0
# iter:  34 12:42:47   -12.317903c  -6.32  -5.41c  +1.6,+0.0,+0.0
# iter:  35 12:43:22   -12.317903c  -6.45  -5.40c  +1.6,+0.0,+0.0
# iter:  36 12:43:57   -12.317911c  -6.59  -5.51c  +1.6,+0.0,+0.0
# iter:  37 12:44:32   -12.317914c  -6.74  -5.57c  +1.6,+0.0,+0.0
# iter:  38 12:45:07   -12.317914c  -6.89  -5.64c  +1.6,+0.0,+0.0
# iter:  39 12:45:42   -12.317913c  -7.03  -5.71c  +1.6,+0.0,+0.0
# iter:  40 12:46:16   -12.317913c  -7.17  -5.87c  +1.6,+0.0,+0.0
# iter:  41 12:46:51   -12.317912c  -7.32  -5.97c  +1.6,+0.0,+0.0
# iter:  42 12:47:26   -12.317912c  -7.47c -5.98c  +1.6,+0.0,+0.0
scf_steps: 42
energies:  # eV
  coulomb:          -7.687952
  zero:              0.067352
  xc:              -14.906649
  external:          0.000000
  kinetic:          10.227942
  spinorbit:         0.000000
  entropy:          -0.037210
  total:           -12.336517
  extrapolated:    -12.317912

dipole moment: [-4.120991, -7.137149, -4.959973]  # |e|*Ang

total magnetic moment: [1.632541, 0.027491, 0.000000]

local magnetic moments: [
  [ 1.135720, -0.000000,  0.000000],  # Ni 0
  [ 0.108422, -0.100583,  0.000000],  # I  1
  [ 0.108404, -0.100602,  0.000000]]  # I  2


Fermi level: -1.183 eV

kpt = [-0.455, -0.455, 0.000], weight = 0.008:
  Band      eig [eV]   occ [0-1]
     0       -64.961       1.000
   ...
    22        -3.099       1.000
    23        -2.955       1.000
    24        -2.896       1.000
    25        -2.294       1.000
    26        -2.149       1.000
    27        -2.125       1.000
    28        -1.704       0.995
    29        -1.640       0.990
    30        -0.718       0.009
    31        -0.710       0.009
    32         1.588       0.000
    33         2.445       0.000
    34         3.656       0.000
    35         4.571       0.000
    36         4.645       0.000
    37         4.812       0.000
   ...
    39         5.470       0.000

kpt = [-0.455, -0.364, 0.000], weight = 0.008:
  Band      eig [eV]   occ [0-1]
     0       -64.961       1.000
   ...
    22        -3.048       1.000
    23        -2.933       1.000
    24        -2.845       1.000
    25        -2.318       1.000
    26        -2.145       1.000
    27        -2.107       1.000
    28        -1.770       0.997
    29        -1.637       0.989
    30        -0.816       0.025
    31        -0.723       0.010
    32         1.726       0.000
    33         2.605       0.000
    34         3.837       0.000
    35         4.505       0.000
    36         4.626       0.000
    37         4.849       0.000
   ...
    39         5.750       0.000

kpt = [-0.455, -0.273, 0.000], weight = 0.008:
  Band      eig [eV]   occ [0-1]
     0       -64.961       1.000
   ...
    22        -3.002       1.000
    23        -2.914       1.000
    24        -2.759       1.000
    25        -2.321       1.000
    26        -2.145       1.000
    27        -2.104       1.000
    28        -1.823       0.998
    29        -1.625       0.988
    30        -0.951       0.089
    31        -0.744       0.012
    32         2.277       0.000
    33         2.488       0.000
    34         4.330       0.000
    35         4.801       0.000
    36         4.822       0.000
    37         4.862       0.000
   ...
    39         5.627       0.000
(only showing first 3 out of 121 k-points)

Gap: 0.229 eV
Transition (v -> c):
  (s=0, k=60, n=29, [0.00, 0.00, 0.00]) -> (s=0, k=96, n=30, [0.27, 0.27, 0.00])
# Writing to gsq-25.gpw (mode='')

