#  __  _  _
# | _ |_)|_||  |
# |__||  | ||/\| - 24.1.0

User:   s194113@n-62-28-31
Date:   Tue Apr 23 08:03:21 2024
Arch:   x86_64
Pid:    26488
CWD:    /zhome/87/8/147075/10302/10302_NM/NiI2/E_con
Python: 3.8.5
gpaw:   /zhome/87/8/147075/venv-name/gpaw/gpaw (10808453a8)
_gpaw:  /zhome/87/8/147075/venv-name/gpaw/
        _gpaw.cpython-38-x86_64-linux-gnu.so (10808453a8)
ase:    /zhome/87/8/147075/venv-name/ase/ase (version 3.23.0b1-c36115a2db)
numpy:  /zhome/87/8/147075/venv-name/lib/python3.8/site-packages/numpy (version 1.24.4)
scipy:  /zhome/87/8/147075/venv-name/lib/python3.8/site-packages/scipy (version 1.10.1)
libxc:  4.3.4
units:  Angstrom and eV
cores: 12
OpenMP: False
OMP_NUM_THREADS: 1

---
input parameters:
  kpts: 
    density: 6.0
    gamma: True
  magmoms: [[1, 0, 0], [0, 0, 0], [0, 0, 0]]
  mixer: 
    backend: 'pulay'
    beta: 0.05
    method: 'sum'
    nmaxold: 5
    weight: 100
  mode: 
    name: 'pw'
    ecut: 1000
    qspiral: array([0.33333333, 0.33333333, 0.        ])
  parallel: 
    kpt: None
    domain: 1
    band: 1
    order: 'kdb'
    stridebands: False
    augment_grids: False
    sl_auto: False
    sl_default: None
    sl_diagonalize: None
    sl_inverse_cholesky: None
    sl_lcao: None
    sl_lrtddft: None
    use_elpa: False
    elpasolver: '2stage'
    buffer_size: None
    gpu: False
  symmetry: 
    point_group: False
    time_reversal: False
  xc: 
    name: 'LDA'

#                        
#                        
#                        
#                        
#                        
#              I         
#                        
#        Ni              
#          I             
#                        
#                        
#                        
#                        
#                        

atoms: [  # symbols, positions [Ang] and initial magnetic moments
  [ Ni, [   0.000000,    0.000000,    7.513573], [ 1.000,  0.000,  0.000]], # 0
  [  I, [   1.985000,    1.146040,    9.027147], [ 0.000,  0.000,  0.000]], # 1
  [  I, [  -0.000000,    2.292081,    6.000000], [ 0.000,  0.000,  0.000]]] # 2

cell: [  # Ang
#     x            y            z
  [   3.970000,    0.000000,    0.000000],
  [  -1.985000,    3.438121,    0.000000],
  [   0.000000,   -0.000000,   15.027147]]

periodic: [True      , True      , False     ]
lengths:  [  3.970000,   3.970000,  15.027147]  # Ang
angles:   [ 90.000000,  90.000000, 120.000000]

symmetry:
  number of symmetries: 1
  rotations: [
    [[ 1,  0,  0], [ 0,  1,  0], [ 0,  0,  1]]]

bz sampling:
  number of bz points: 121
  number of ibz points: 121
  monkhorst-pack size: [11, 11, 1]
  monkhorst-pack shift: [0, 0, 0]
  points and weights: [
    [[ -0.45454545,  -0.45454545,   0.00000000], 0.00826446],  # 0
    [[ -0.45454545,  -0.36363636,   0.00000000], 0.00826446],  # 1
    [[ -0.45454545,  -0.27272727,   0.00000000], 0.00826446],  # 2
    [[ -0.45454545,  -0.18181818,   0.00000000], 0.00826446],  # 3
    [[ -0.45454545,  -0.09090909,   0.00000000], 0.00826446],  # 4
    [[ -0.45454545,   0.00000000,   0.00000000], 0.00826446],  # 5
    [[ -0.45454545,   0.09090909,   0.00000000], 0.00826446],  # 6
    [[ -0.45454545,   0.18181818,   0.00000000], 0.00826446],  # 7
    [[ -0.45454545,   0.27272727,   0.00000000], 0.00826446],  # 8
    [[ -0.45454545,   0.36363636,   0.00000000], 0.00826446],  # 9
    # ...
    [[  0.45454545,   0.45454545,   0.00000000], 0.00826446]]  # 120

plane wave coefficients: 14746
cutoff: 1000.0 eV

spin-components: 4  # (non-collinear spins)
bands: 40
valence electrons: 30.0
spin-degeneracy: 1
dtype: complex128

memory:
    wave functions: 2_283_860_480  # bytes  (190_321_706 per core)

parallelization:
    kpt:    12
    domain: 1
    band:   1

density:
  components: 4
  grid points: [ 30  30 112]
  charge: 0.0  # |e|

potential:
  grid points: [ 30  30 112]

species:
  Ni:
    name: Nickel
    id: 1802175e8de9ea26d9f4394ec1a7d564
    Z: 28.0
    valence: 16
    core: 12
    charge: 0.0
    file: /zhome/86/d/1666/PAW/gpaw-setups-0.9.20000/Ni.LDA.gz
    compensation charges: {type: gauss,
                           rc: 0.36,
                           lmax: 2}
    cutoffs: {filter: 2.14,
              core: 1.98}
    valence states:
      #              energy  rcut
      - 4s(2.00)    -5.858   1.164
      - 3p(6.00)   -71.266   1.207
      - 4p(0.00)    -1.338   1.207
      - 3d(8.00)    -9.141   1.138
      -  s          21.353   1.164
      -  d          18.071   1.138
  
    # Using partial waves for Ni as LCAO basis

  I:
    name: Iodine
    id: b559721c0c096a7b4c8fc0e0f4de5cf4
    Z: 53.0
    valence: 7
    core: 46
    charge: 0.0
    file: /zhome/86/d/1666/PAW/gpaw-setups-0.9.20000/I.LDA.gz
    compensation charges: {type: gauss,
                           rc: 0.37,
                           lmax: 2}
    cutoffs: {filter: 2.06,
              core: 2.90}
    valence states:
      #              energy  rcut
      - 5s(2.00)   -17.626   1.164
      - 5p(5.00)    -7.241   1.164
      -  s           9.585   1.164
      -  p          19.970   1.164
      -  d           0.000   1.164
  
    # Using partial waves for I as LCAO basis

Reference energy: -428067.566327  # eV

eigensolver:
  name: 'Davidson'
  niter: 2
  converge_bands: 'occupied'
Density mixing:
  Method: sum
  Backend: pulay
  Linear mixing parameter: 0.05
  old densities: 5
  Damping of long wavelength oscillations: 100
occupation numbers:
  Fermi-Dirac:
    width: 0.1000  # eV
  

poisson solver:
  ecut: 8000.0  # eV

xc functional:
  name: None

convergence criteria:
- Maximum [total energy] change in last 3 cyles: 0.0005 eV / valence electron
- Maximum integral of absolute [dens]ity change: 0.0001 electrons / valence electron
- Maximum integral of absolute [eigenst]ate change: 4e-08 eV^2 / valence electron
maximum number of iterations: 333

#      iter     time        total  log10-change:
#                          energy   eigst   dens
# iter:   1 08:04:13   -12.660986                  +1.0,+0.0,+0.0
# iter:   2 08:04:49   -12.439203   +0.48  -1.31   +0.7,-0.0,+0.0
# iter:   3 08:05:24   -12.171746   -0.20  -1.45   +0.7,-0.0,+0.0
# iter:   4 08:05:59   -12.212887   -0.74  -1.68   +0.8,+0.0,+0.0
# iter:   5 08:06:34   -12.600663   -0.91  -1.68   +0.8,+0.0,+0.0
# iter:   6 08:07:09   -12.279401   -1.17  -1.68   +0.8,+0.0,+0.0
# iter:   7 08:07:45   -12.293172   -1.43  -2.21   +0.8,+0.0,+0.0
# iter:   8 08:08:20   -12.281673c  -1.58  -2.28   +0.9,+0.0,+0.0
# iter:   9 08:08:54   -12.282951c  -1.75  -2.71   +0.9,+0.0,-0.0
# iter:  10 08:09:30   -12.291114c  -1.87  -2.81   +1.0,+0.0,-0.0
# iter:  11 08:10:04   -12.289381c  -2.04  -2.71   +1.0,+0.0,+0.0
# iter:  12 08:10:39   -12.287119c  -2.15  -2.71   +1.0,+0.0,+0.0
# iter:  13 08:11:14   -12.290702c  -2.26  -3.03   +1.0,+0.0,+0.0
# iter:  14 08:11:49   -12.291329c  -2.43  -2.78   +1.0,+0.0,+0.0
# iter:  15 08:12:24   -12.291533c  -2.58  -3.45   +1.0,+0.0,+0.0
# iter:  16 08:12:59   -12.291770c  -2.71  -3.56   +1.0,+0.0,+0.0
# iter:  17 08:13:33   -12.292172c  -2.84  -3.61   +1.0,+0.0,+0.0
# iter:  18 08:14:08   -12.292792c  -2.96  -3.74   +1.0,+0.0,+0.0
# iter:  19 08:14:43   -12.293121c  -3.08  -3.80   +1.0,+0.0,+0.0
# iter:  20 08:15:18   -12.293478c  -3.20  -3.84   +1.0,+0.0,+0.0
# iter:  21 08:15:53   -12.293520c  -3.32  -3.88   +1.0,+0.0,+0.0
# iter:  22 08:16:28   -12.293587c  -3.45  -3.90   +1.0,+0.0,+0.0
# iter:  23 08:17:04   -12.293526c  -3.58  -3.87   +1.0,+0.0,+0.0
# iter:  24 08:17:39   -12.293402c  -3.72  -3.90   +1.0,+0.0,+0.0
# iter:  25 08:18:14   -12.293757c  -3.84  -3.91   +1.0,+0.0,+0.0
# iter:  26 08:18:49   -12.293930c  -3.97  -3.90   +1.0,+0.0,+0.0
# iter:  27 08:19:24   -12.294617c  -4.06  -3.92   +1.0,+0.0,+0.0
# iter:  28 08:19:59   -12.294636c  -4.20  -4.20c  +1.0,+0.0,+0.0
# iter:  29 08:20:34   -12.294668c  -4.32  -4.25c  +1.0,+0.0,+0.0
# iter:  30 08:21:09   -12.294677c  -4.44  -4.37c  +1.0,+0.0,+0.0
# iter:  31 08:21:44   -12.294759c  -4.57  -4.62c  +1.0,+0.0,+0.0
# iter:  32 08:22:19   -12.294761c  -4.69  -4.71c  +1.0,+0.0,+0.0
# iter:  33 08:22:54   -12.294773c  -4.81  -4.74c  +1.0,+0.0,+0.0
# iter:  34 08:23:29   -12.294779c  -4.94  -4.79c  +1.0,+0.0,+0.0
# iter:  35 08:24:04   -12.294768c  -5.06  -4.89c  +1.0,+0.0,+0.0
# iter:  36 08:24:39   -12.294756c  -5.18  -4.91c  +1.0,+0.0,+0.0
# iter:  37 08:25:14   -12.294741c  -5.30  -4.95c  +1.0,+0.0,+0.0
# iter:  38 08:25:49   -12.294742c  -5.42  -4.96c  +1.0,+0.0,+0.0
# iter:  39 08:26:24   -12.294755c  -5.55  -4.97c  +1.0,+0.0,+0.0
# iter:  40 08:26:59   -12.294779c  -5.67  -4.98c  +1.0,+0.0,+0.0
# iter:  41 08:27:34   -12.294789c  -5.79  -5.08c  +1.0,+0.0,+0.0
# iter:  42 08:28:08   -12.294839c  -5.91  -5.14c  +1.1,+0.0,+0.0
# iter:  43 08:28:43   -12.294850c  -6.03  -5.35c  +1.1,+0.0,+0.0
# iter:  44 08:29:18   -12.294818c  -6.14  -5.29c  +1.0,+0.0,+0.0
# iter:  45 08:29:53   -12.294821c  -6.26  -5.43c  +1.0,+0.0,+0.0
# iter:  46 08:30:28   -12.294825c  -6.38  -5.48c  +1.0,+0.0,+0.0
# iter:  47 08:31:03   -12.294833c  -6.50  -5.57c  +1.1,+0.0,+0.0
# iter:  48 08:31:38   -12.294835c  -6.62  -5.69c  +1.1,+0.0,+0.0
# iter:  49 08:32:13   -12.294836c  -6.74  -5.75c  +1.1,+0.0,+0.0
# iter:  50 08:32:48   -12.294835c  -6.85  -5.92c  +1.1,+0.0,+0.0
# iter:  51 08:33:23   -12.294836c  -6.97  -6.00c  +1.1,+0.0,+0.0
# iter:  52 08:33:58   -12.294837c  -7.11  -6.08c  +1.1,+0.0,+0.0
# iter:  53 08:34:33   -12.294834c  -7.25  -6.16c  +1.1,+0.0,+0.0
# iter:  54 08:35:08   -12.294833c  -7.39  -6.44c  +1.1,+0.0,+0.0
# iter:  55 08:35:43   -12.294831c  -7.53c -6.48c  +1.1,+0.0,+0.0
scf_steps: 55
energies:  # eV
  coulomb:          -7.655347
  zero:              0.067486
  xc:              -14.871192
  external:          0.000000
  kinetic:          10.185483
  spinorbit:         0.000000
  entropy:          -0.042521
  total:           -12.316092
  extrapolated:    -12.294831

dipole moment: [-3.524110, -6.103381, -0.559466]  # |e|*Ang

total magnetic moment: [1.050002, 0.000006, 0.000000]

local magnetic moments: [
  [ 1.111794,  0.000000,  0.000000],  # Ni 0
  [ 0.000015, -0.000025,  0.000000],  # I  1
  [-0.000029,  0.000000,  0.000000]]  # I  2


Fermi level: -1.202 eV

kpt = [-0.455, -0.455, 0.000], weight = 0.008:
  Band      eig [eV]   occ [0-1]
     0       -64.939       1.000
   ...
    22        -3.010       1.000
    23        -2.813       1.000
    24        -2.783       1.000
    25        -2.342       1.000
    26        -2.118       1.000
    27        -2.100       1.000
    28        -1.826       0.998
    29        -1.814       0.998
    30        -0.949       0.074
    31        -0.914       0.053
    32         2.484       0.000
    33         2.635       0.000
    34         4.460       0.000
    35         4.754       0.000
    36         4.909       0.000
    37         5.288       0.000
   ...
    39         6.069       0.000

kpt = [-0.455, -0.364, 0.000], weight = 0.008:
  Band      eig [eV]   occ [0-1]
     0       -64.939       1.000
   ...
    22        -2.930       1.000
    23        -2.881       1.000
    24        -2.780       1.000
    25        -2.398       1.000
    26        -2.194       1.000
    27        -2.104       1.000
    28        -1.727       0.995
    29        -1.644       0.988
    30        -0.919       0.056
    31        -0.799       0.018
    32         2.183       0.000
    33         2.586       0.000
    34         4.202       0.000
    35         4.462       0.000
    36         4.888       0.000
    37         5.013       0.000
   ...
    39         5.345       0.000

kpt = [-0.455, -0.273, 0.000], weight = 0.008:
  Band      eig [eV]   occ [0-1]
     0       -64.939       1.000
   ...
    22        -2.979       1.000
    23        -2.880       1.000
    24        -2.759       1.000
    25        -2.364       1.000
    26        -2.275       1.000
    27        -2.085       1.000
    28        -1.608       0.983
    29        -1.454       0.926
    30        -0.889       0.042
    31        -0.677       0.005
    32         1.818       0.000
    33         2.339       0.000
    34         3.856       0.000
    35         4.092       0.000
    36         4.429       0.000
    37         4.531       0.000
   ...
    39         5.022       0.000
(only showing first 3 out of 121 k-points)

Gap: 0.446 eV
Transition (v -> c):
  (s=0, k=77, n=29, [0.18, -0.45, 0.00]) -> (s=0, k=60, n=30, [0.00, 0.00, 0.00])
# Writing to gsq-16.gpw (mode='')

---

timing:  # [seconds]
  Total: 3871.006  # ━━━━━━━━━━━━━━━━━━━━━━━━━━━━━━━━━━━━━━━━━━━━━━━━━━━━━━━━
  Init:    20.510  # ╸
  SCF:   1921.832  # ━━━━━━━━━━━━━━━━━━━━━━━━━━━━

Max RSS: 1645.785  # MiB
