#  __  _  _
# | _ |_)|_||  |
# |__||  | ||/\| - 24.1.0

User:   s194113@n-62-28-31
Date:   Tue Apr 23 05:02:06 2024
Arch:   x86_64
Pid:    26488
CWD:    /zhome/87/8/147075/10302/10302_NM/NiI2/E_con
Python: 3.8.5
gpaw:   /zhome/87/8/147075/venv-name/gpaw/gpaw (10808453a8)
_gpaw:  /zhome/87/8/147075/venv-name/gpaw/
        _gpaw.cpython-38-x86_64-linux-gnu.so (10808453a8)
ase:    /zhome/87/8/147075/venv-name/ase/ase (version 3.23.0b1-c36115a2db)
numpy:  /zhome/87/8/147075/venv-name/lib/python3.8/site-packages/numpy (version 1.24.4)
scipy:  /zhome/87/8/147075/venv-name/lib/python3.8/site-packages/scipy (version 1.10.1)
libxc:  4.3.4
units:  Angstrom and eV
cores: 12
OpenMP: False
OMP_NUM_THREADS: 1

---
input parameters:
  kpts: 
    density: 6.0
    gamma: True
  magmoms: [[1, 0, 0], [0, 0, 0], [0, 0, 0]]
  mixer: 
    backend: 'pulay'
    beta: 0.05
    method: 'sum'
    nmaxold: 5
    weight: 100
  mode: 
    name: 'pw'
    ecut: 1000
    qspiral: array([0.5, 0. , 0. ])
  parallel: 
    kpt: None
    domain: 1
    band: 1
    order: 'kdb'
    stridebands: False
    augment_grids: False
    sl_auto: False
    sl_default: None
    sl_diagonalize: None
    sl_inverse_cholesky: None
    sl_lcao: None
    sl_lrtddft: None
    use_elpa: False
    elpasolver: '2stage'
    buffer_size: None
    gpu: False
  symmetry: 
    point_group: False
    time_reversal: False
  xc: 
    name: 'LDA'

#                        
#                        
#                        
#                        
#                        
#              I         
#                        
#        Ni              
#          I             
#                        
#                        
#                        
#                        
#                        

atoms: [  # symbols, positions [Ang] and initial magnetic moments
  [ Ni, [   0.000000,    0.000000,    7.513573], [ 1.000,  0.000,  0.000]], # 0
  [  I, [   1.985000,    1.146040,    9.027147], [ 0.000,  0.000,  0.000]], # 1
  [  I, [  -0.000000,    2.292081,    6.000000], [ 0.000,  0.000,  0.000]]] # 2

cell: [  # Ang
#     x            y            z
  [   3.970000,    0.000000,    0.000000],
  [  -1.985000,    3.438121,    0.000000],
  [   0.000000,   -0.000000,   15.027147]]

periodic: [True      , True      , False     ]
lengths:  [  3.970000,   3.970000,  15.027147]  # Ang
angles:   [ 90.000000,  90.000000, 120.000000]

symmetry:
  number of symmetries: 1
  rotations: [
    [[ 1,  0,  0], [ 0,  1,  0], [ 0,  0,  1]]]

bz sampling:
  number of bz points: 121
  number of ibz points: 121
  monkhorst-pack size: [11, 11, 1]
  monkhorst-pack shift: [0, 0, 0]
  points and weights: [
    [[ -0.45454545,  -0.45454545,   0.00000000], 0.00826446],  # 0
    [[ -0.45454545,  -0.36363636,   0.00000000], 0.00826446],  # 1
    [[ -0.45454545,  -0.27272727,   0.00000000], 0.00826446],  # 2
    [[ -0.45454545,  -0.18181818,   0.00000000], 0.00826446],  # 3
    [[ -0.45454545,  -0.09090909,   0.00000000], 0.00826446],  # 4
    [[ -0.45454545,   0.00000000,   0.00000000], 0.00826446],  # 5
    [[ -0.45454545,   0.09090909,   0.00000000], 0.00826446],  # 6
    [[ -0.45454545,   0.18181818,   0.00000000], 0.00826446],  # 7
    [[ -0.45454545,   0.27272727,   0.00000000], 0.00826446],  # 8
    [[ -0.45454545,   0.36363636,   0.00000000], 0.00826446],  # 9
    # ...
    [[  0.45454545,   0.45454545,   0.00000000], 0.00826446]]  # 120

plane wave coefficients: 14746
cutoff: 1000.0 eV

spin-components: 4  # (non-collinear spins)
bands: 40
valence electrons: 30.0
spin-degeneracy: 1
dtype: complex128

memory:
    wave functions: 2_283_860_480  # bytes  (190_321_706 per core)

parallelization:
    kpt:    12
    domain: 1
    band:   1

density:
  components: 4
  grid points: [ 30  30 112]
  charge: 0.0  # |e|

potential:
  grid points: [ 30  30 112]

species:
  Ni:
    name: Nickel
    id: 1802175e8de9ea26d9f4394ec1a7d564
    Z: 28.0
    valence: 16
    core: 12
    charge: 0.0
    file: /zhome/86/d/1666/PAW/gpaw-setups-0.9.20000/Ni.LDA.gz
    compensation charges: {type: gauss,
                           rc: 0.36,
                           lmax: 2}
    cutoffs: {filter: 2.14,
              core: 1.98}
    valence states:
      #              energy  rcut
      - 4s(2.00)    -5.858   1.164
      - 3p(6.00)   -71.266   1.207
      - 4p(0.00)    -1.338   1.207
      - 3d(8.00)    -9.141   1.138
      -  s          21.353   1.164
      -  d          18.071   1.138
  
    # Using partial waves for Ni as LCAO basis

  I:
    name: Iodine
    id: b559721c0c096a7b4c8fc0e0f4de5cf4
    Z: 53.0
    valence: 7
    core: 46
    charge: 0.0
    file: /zhome/86/d/1666/PAW/gpaw-setups-0.9.20000/I.LDA.gz
    compensation charges: {type: gauss,
                           rc: 0.37,
                           lmax: 2}
    cutoffs: {filter: 2.06,
              core: 2.90}
    valence states:
      #              energy  rcut
      - 5s(2.00)   -17.626   1.164
      - 5p(5.00)    -7.241   1.164
      -  s           9.585   1.164
      -  p          19.970   1.164
      -  d           0.000   1.164
  
    # Using partial waves for I as LCAO basis

Reference energy: -428067.566327  # eV

eigensolver:
  name: 'Davidson'
  niter: 2
  converge_bands: 'occupied'
Density mixing:
  Method: sum
  Backend: pulay
  Linear mixing parameter: 0.05
  old densities: 5
  Damping of long wavelength oscillations: 100
occupation numbers:
  Fermi-Dirac:
    width: 0.1000  # eV
  

poisson solver:
  ecut: 8000.0  # eV

xc functional:
  name: None

convergence criteria:
- Maximum [total energy] change in last 3 cyles: 0.0005 eV / valence electron
- Maximum integral of absolute [dens]ity change: 0.0001 electrons / valence electron
- Maximum integral of absolute [eigenst]ate change: 4e-08 eV^2 / valence electron
maximum number of iterations: 333

#      iter     time        total  log10-change:
#                          energy   eigst   dens
# iter:   1 05:02:59   -13.006862                  +1.0,+0.0,+0.0
# iter:   2 05:03:33   -12.490662   +0.34  -1.31   +0.8,-0.0,-0.0
# iter:   3 05:04:08   -12.157158   -0.29  -1.45   +0.7,-0.0,-0.0
# iter:   4 05:04:44   -12.206464   -0.85  -1.68   +0.8,+0.0,-0.0
# iter:   5 05:05:18   -12.601907   -1.00  -1.67   +0.8,+0.0,-0.0
# iter:   6 05:05:53   -12.227067   -1.22  -1.65   +0.8,+0.0,+0.0
# iter:   7 05:06:28   -12.227328   -1.50  -2.20   +0.9,+0.0,-0.0
# iter:   8 05:07:03   -12.230295c  -1.69  -2.36   +0.9,+0.0,-0.0
# iter:   9 05:07:37   -12.232194c  -1.84  -2.56   +1.0,+0.0,-0.0
# iter:  10 05:08:12   -12.233006c  -2.01  -3.03   +1.0,+0.0,+0.0
# iter:  11 05:08:47   -12.242089c  -2.15  -2.94   +1.0,-0.0,-0.0
# iter:  12 05:09:21   -12.243670c  -2.28  -3.20   +1.1,-0.0,-0.0
# iter:  13 05:09:56   -12.243981c  -2.43  -3.49   +1.1,-0.0,-0.0
# iter:  14 05:10:31   -12.243808c  -2.56  -3.57   +1.0,-0.0,-0.0
# iter:  15 05:11:05   -12.246212c  -2.69  -3.52   +1.1,-0.0,-0.0
# iter:  16 05:11:40   -12.246740c  -2.82  -3.72   +1.1,-0.0,-0.0
# iter:  17 05:12:15   -12.247617c  -2.94  -3.74   +1.1,-0.0,-0.0
# iter:  18 05:12:49   -12.247847c  -3.08  -3.74   +1.1,-0.0,-0.0
# iter:  19 05:13:24   -12.247706c  -3.20  -3.74   +1.1,-0.0,-0.0
# iter:  20 05:13:59   -12.247462c  -3.33  -3.75   +1.1,-0.0,-0.0
# iter:  21 05:14:33   -12.247927c  -3.46  -3.72   +1.1,-0.0,-0.0
# iter:  22 05:15:08   -12.247717c  -3.59  -3.75   +1.1,-0.0,-0.0
# iter:  23 05:15:42   -12.248556c  -3.72  -3.75   +1.1,-0.0,-0.0
# iter:  24 05:16:17   -12.249549c  -3.83  -3.76   +1.1,-0.0,+0.0
# iter:  25 05:16:51   -12.249752c  -3.98  -3.89   +1.1,-0.0,+0.0
# iter:  26 05:17:26   -12.249857c  -4.11  -3.96   +1.1,-0.0,+0.0
# iter:  27 05:18:00   -12.250160c  -4.23  -4.04c  +1.1,-0.0,+0.0
# iter:  28 05:18:35   -12.250212c  -4.37  -4.16c  +1.1,-0.0,-0.0
# iter:  29 05:19:10   -12.249977c  -4.50  -4.18c  +1.1,-0.0,-0.0
# iter:  30 05:19:44   -12.250055c  -4.64  -4.38c  +1.1,+0.0,-0.0
# iter:  31 05:20:18   -12.250142c  -4.77  -4.59c  +1.1,+0.0,-0.0
# iter:  32 05:20:53   -12.250157c  -4.90  -4.77c  +1.1,+0.0,-0.0
# iter:  33 05:21:28   -12.250173c  -5.04  -4.82c  +1.1,+0.0,-0.0
# iter:  34 05:22:02   -12.250170c  -5.18  -4.92c  +1.1,+0.0,-0.0
# iter:  35 05:22:37   -12.250173c  -5.31  -4.94c  +1.1,+0.0,-0.0
# iter:  36 05:23:11   -12.250182c  -5.46  -4.96c  +1.1,+0.0,-0.0
# iter:  37 05:23:46   -12.250200c  -5.59  -4.99c  +1.1,+0.0,-0.0
# iter:  38 05:24:20   -12.250188c  -5.74  -5.04c  +1.1,+0.0,-0.0
# iter:  39 05:24:55   -12.250193c  -5.88  -5.20c  +1.1,+0.0,-0.0
# iter:  40 05:25:29   -12.250197c  -6.01  -5.24c  +1.1,-0.0,-0.0
# iter:  41 05:26:04   -12.250195c  -6.15  -5.33c  +1.1,-0.0,-0.0
# iter:  42 05:26:39   -12.250191c  -6.29  -5.43c  +1.1,-0.0,-0.0
# iter:  43 05:27:13   -12.250186c  -6.43  -5.50c  +1.1,-0.0,-0.0
# iter:  44 05:27:47   -12.250175c  -6.56  -5.56c  +1.1,-0.0,-0.0
# iter:  45 05:28:22   -12.250173c  -6.70  -5.66c  +1.1,-0.0,-0.0
# iter:  46 05:28:56   -12.250174c  -6.84  -5.67c  +1.1,-0.0,-0.0
# iter:  47 05:29:31   -12.250176c  -6.97  -5.74c  +1.1,+0.0,-0.0
# iter:  48 05:30:05   -12.250176c  -7.10  -6.06c  +1.1,+0.0,-0.0
# iter:  49 05:30:39   -12.250174c  -7.23  -6.22c  +1.1,+0.0,-0.0
# iter:  50 05:31:14   -12.250174c  -7.36  -6.50c  +1.1,+0.0,-0.0
# iter:  51 05:31:48   -12.250175c  -7.49c -6.53c  +1.1,+0.0,-0.0
scf_steps: 51
energies:  # eV
  coulomb:          -8.031140
  zero:              0.066919
  xc:              -14.905952
  external:          0.000000
  kinetic:          10.655604
  spinorbit:         0.000000
  entropy:          -0.071211
  total:           -12.285780
  extrapolated:    -12.250175

dipole moment: [-3.496181, -6.306177, -0.731882]  # |e|*Ang

total magnetic moment: [1.125660, 0.000001, -0.000000]

local magnetic moments: [
  [ 1.107968, -0.000000, -0.000000],  # Ni 0
  [-0.057064, -0.000003, -0.000000],  # I  1
  [ 0.057064, -0.000003, -0.000000]]  # I  2


Fermi level: -1.198 eV

kpt = [-0.455, -0.455, 0.000], weight = 0.008:
  Band      eig [eV]   occ [0-1]
     0       -64.949       1.000
   ...
    22        -2.997       1.000
    23        -2.931       1.000
    24        -2.681       1.000
    25        -2.292       1.000
    26        -2.184       1.000
    27        -2.098       1.000
    28        -1.862       0.999
    29        -1.581       0.979
    30        -1.028       0.155
    31        -0.744       0.011
    32         2.397       0.000
    33         2.535       0.000
    34         4.220       0.000
    35         4.470       0.000
    36         4.840       0.000
    37         5.121       0.000
   ...
    39         5.543       0.000

kpt = [-0.455, -0.364, 0.000], weight = 0.008:
  Band      eig [eV]   occ [0-1]
     0       -64.949       1.000
   ...
    22        -2.943       1.000
    23        -2.891       1.000
    24        -2.704       1.000
    25        -2.408       1.000
    26        -2.123       1.000
    27        -2.102       1.000
    28        -1.762       0.996
    29        -1.525       0.963
    30        -0.986       0.108
    31        -0.712       0.008
    32         2.199       0.000
    33         2.449       0.000
    34         3.940       0.000
    35         4.439       0.000
    36         4.602       0.000
    37         4.906       0.000
   ...
    39         5.504       0.000

kpt = [-0.455, -0.273, 0.000], weight = 0.008:
  Band      eig [eV]   occ [0-1]
     0       -64.949       1.000
   ...
    22        -2.925       1.000
    23        -2.818       1.000
    24        -2.627       1.000
    25        -2.451       1.000
    26        -2.114       1.000
    27        -2.037       1.000
    28        -1.815       0.998
    29        -1.446       0.923
    30        -1.083       0.240
    31        -0.643       0.004
    32         2.352       0.000
    33         2.655       0.000
    34         3.778       0.000
    35         4.158       0.000
    36         4.331       0.000
    37         4.753       0.000
   ...
    39         5.757       0.000
(only showing first 3 out of 121 k-points)

No gap
# Writing to gsq-10.gpw (mode='')

