#  __  _  _
# | _ |_)|_||  |
# |__||  | ||/\| - 24.1.0

User:   s194113@n-62-28-31
Date:   Tue Apr 23 09:07:04 2024
Arch:   x86_64
Pid:    26488
CWD:    /zhome/87/8/147075/10302/10302_NM/NiI2/E_con
Python: 3.8.5
gpaw:   /zhome/87/8/147075/venv-name/gpaw/gpaw (10808453a8)
_gpaw:  /zhome/87/8/147075/venv-name/gpaw/
        _gpaw.cpython-38-x86_64-linux-gnu.so (10808453a8)
ase:    /zhome/87/8/147075/venv-name/ase/ase (version 3.23.0b1-c36115a2db)
numpy:  /zhome/87/8/147075/venv-name/lib/python3.8/site-packages/numpy (version 1.24.4)
scipy:  /zhome/87/8/147075/venv-name/lib/python3.8/site-packages/scipy (version 1.10.1)
libxc:  4.3.4
units:  Angstrom and eV
cores: 12
OpenMP: False
OMP_NUM_THREADS: 1

---
input parameters:
  kpts: 
    density: 6.0
    gamma: True
  magmoms: [[1, 0, 0], [0, 0, 0], [0, 0, 0]]
  mixer: 
    backend: 'pulay'
    beta: 0.05
    method: 'sum'
    nmaxold: 5
    weight: 100
  mode: 
    name: 'pw'
    ecut: 1000
    qspiral: array([0.28571429, 0.28571429, 0.        ])
  parallel: 
    kpt: None
    domain: 1
    band: 1
    order: 'kdb'
    stridebands: False
    augment_grids: False
    sl_auto: False
    sl_default: None
    sl_diagonalize: None
    sl_inverse_cholesky: None
    sl_lcao: None
    sl_lrtddft: None
    use_elpa: False
    elpasolver: '2stage'
    buffer_size: None
    gpu: False
  symmetry: 
    point_group: False
    time_reversal: False
  xc: 
    name: 'LDA'

#                        
#                        
#                        
#                        
#                        
#              I         
#                        
#        Ni              
#          I             
#                        
#                        
#                        
#                        
#                        

atoms: [  # symbols, positions [Ang] and initial magnetic moments
  [ Ni, [   0.000000,    0.000000,    7.513573], [ 1.000,  0.000,  0.000]], # 0
  [  I, [   1.985000,    1.146040,    9.027147], [ 0.000,  0.000,  0.000]], # 1
  [  I, [  -0.000000,    2.292081,    6.000000], [ 0.000,  0.000,  0.000]]] # 2

cell: [  # Ang
#     x            y            z
  [   3.970000,    0.000000,    0.000000],
  [  -1.985000,    3.438121,    0.000000],
  [   0.000000,   -0.000000,   15.027147]]

periodic: [True      , True      , False     ]
lengths:  [  3.970000,   3.970000,  15.027147]  # Ang
angles:   [ 90.000000,  90.000000, 120.000000]

symmetry:
  number of symmetries: 1
  rotations: [
    [[ 1,  0,  0], [ 0,  1,  0], [ 0,  0,  1]]]

bz sampling:
  number of bz points: 121
  number of ibz points: 121
  monkhorst-pack size: [11, 11, 1]
  monkhorst-pack shift: [0, 0, 0]
  points and weights: [
    [[ -0.45454545,  -0.45454545,   0.00000000], 0.00826446],  # 0
    [[ -0.45454545,  -0.36363636,   0.00000000], 0.00826446],  # 1
    [[ -0.45454545,  -0.27272727,   0.00000000], 0.00826446],  # 2
    [[ -0.45454545,  -0.18181818,   0.00000000], 0.00826446],  # 3
    [[ -0.45454545,  -0.09090909,   0.00000000], 0.00826446],  # 4
    [[ -0.45454545,   0.00000000,   0.00000000], 0.00826446],  # 5
    [[ -0.45454545,   0.09090909,   0.00000000], 0.00826446],  # 6
    [[ -0.45454545,   0.18181818,   0.00000000], 0.00826446],  # 7
    [[ -0.45454545,   0.27272727,   0.00000000], 0.00826446],  # 8
    [[ -0.45454545,   0.36363636,   0.00000000], 0.00826446],  # 9
    # ...
    [[  0.45454545,   0.45454545,   0.00000000], 0.00826446]]  # 120

plane wave coefficients: 14746
cutoff: 1000.0 eV

spin-components: 4  # (non-collinear spins)
bands: 40
valence electrons: 30.0
spin-degeneracy: 1
dtype: complex128

memory:
    wave functions: 2_283_860_480  # bytes  (190_321_706 per core)

parallelization:
    kpt:    12
    domain: 1
    band:   1

density:
  components: 4
  grid points: [ 30  30 112]
  charge: 0.0  # |e|

potential:
  grid points: [ 30  30 112]

species:
  Ni:
    name: Nickel
    id: 1802175e8de9ea26d9f4394ec1a7d564
    Z: 28.0
    valence: 16
    core: 12
    charge: 0.0
    file: /zhome/86/d/1666/PAW/gpaw-setups-0.9.20000/Ni.LDA.gz
    compensation charges: {type: gauss,
                           rc: 0.36,
                           lmax: 2}
    cutoffs: {filter: 2.14,
              core: 1.98}
    valence states:
      #              energy  rcut
      - 4s(2.00)    -5.858   1.164
      - 3p(6.00)   -71.266   1.207
      - 4p(0.00)    -1.338   1.207
      - 3d(8.00)    -9.141   1.138
      -  s          21.353   1.164
      -  d          18.071   1.138
  
    # Using partial waves for Ni as LCAO basis

  I:
    name: Iodine
    id: b559721c0c096a7b4c8fc0e0f4de5cf4
    Z: 53.0
    valence: 7
    core: 46
    charge: 0.0
    file: /zhome/86/d/1666/PAW/gpaw-setups-0.9.20000/I.LDA.gz
    compensation charges: {type: gauss,
                           rc: 0.37,
                           lmax: 2}
    cutoffs: {filter: 2.06,
              core: 2.90}
    valence states:
      #              energy  rcut
      - 5s(2.00)   -17.626   1.164
      - 5p(5.00)    -7.241   1.164
      -  s           9.585   1.164
      -  p          19.970   1.164
      -  d           0.000   1.164
  
    # Using partial waves for I as LCAO basis

Reference energy: -428067.566327  # eV

eigensolver:
  name: 'Davidson'
  niter: 2
  converge_bands: 'occupied'
Density mixing:
  Method: sum
  Backend: pulay
  Linear mixing parameter: 0.05
  old densities: 5
  Damping of long wavelength oscillations: 100
occupation numbers:
  Fermi-Dirac:
    width: 0.1000  # eV
  

poisson solver:
  ecut: 8000.0  # eV

xc functional:
  name: None

convergence criteria:
- Maximum [total energy] change in last 3 cyles: 0.0005 eV / valence electron
- Maximum integral of absolute [dens]ity change: 0.0001 electrons / valence electron
- Maximum integral of absolute [eigenst]ate change: 4e-08 eV^2 / valence electron
maximum number of iterations: 333

#      iter     time        total  log10-change:
#                          energy   eigst   dens
# iter:   1 09:07:56   -13.030498                  +1.0,+0.0,+0.0
# iter:   2 09:08:32   -12.516889   +0.35  -1.31   +0.8,+0.0,+0.0
# iter:   3 09:09:07   -12.189094   -0.30  -1.45   +0.8,+0.0,-0.0
# iter:   4 09:09:42   -12.238589   -0.87  -1.68   +0.9,+0.0,-0.0
# iter:   5 09:10:18   -12.587937   -1.02  -1.67   +0.9,+0.0,+0.0
# iter:   6 09:10:53   -12.280959   -1.26  -1.69   +0.9,+0.0,+0.0
# iter:   7 09:11:28   -12.286766   -1.54  -2.21   +0.9,+0.0,+0.0
# iter:   8 09:12:03   -12.281302c  -1.71  -2.32   +1.0,+0.0,-0.0
# iter:   9 09:12:38   -12.282244c  -1.88  -2.67   +1.0,+0.0,-0.0
# iter:  10 09:13:13   -12.285988c  -2.02  -2.91   +1.0,+0.0,-0.0
# iter:  11 09:13:48   -12.289917c  -2.14  -2.83   +1.1,+0.0,+0.0
# iter:  12 09:14:23   -12.290168c  -2.33  -3.04   +1.1,+0.0,+0.0
# iter:  13 09:14:58   -12.290311c  -2.47  -3.51   +1.1,+0.0,+0.0
# iter:  14 09:15:33   -12.290499c  -2.60  -3.59   +1.1,+0.0,+0.0
# iter:  15 09:16:08   -12.291391c  -2.73  -3.70   +1.1,+0.0,+0.0
# iter:  16 09:16:43   -12.291811c  -2.86  -3.81   +1.1,+0.0,+0.0
# iter:  17 09:17:18   -12.292040c  -2.99  -3.71   +1.1,+0.0,+0.0
# iter:  18 09:17:53   -12.293149c  -3.12  -3.87   +1.1,+0.0,+0.0
# iter:  19 09:18:28   -12.293183c  -3.25  -4.19c  +1.1,+0.0,+0.0
# iter:  20 09:19:03   -12.293227c  -3.37  -4.28c  +1.1,+0.0,+0.0
# iter:  21 09:19:38   -12.293356c  -3.50  -4.29c  +1.1,+0.0,+0.0
# iter:  22 09:20:13   -12.293413c  -3.63  -4.36c  +1.1,+0.0,+0.0
# iter:  23 09:20:48   -12.293369c  -3.76  -4.64c  +1.1,+0.0,+0.0
# iter:  24 09:21:24   -12.293418c  -3.89  -4.63c  +1.1,+0.0,+0.0
# iter:  25 09:21:59   -12.293435c  -4.02  -4.66c  +1.1,+0.0,+0.0
# iter:  26 09:22:34   -12.293433c  -4.15  -4.72c  +1.1,+0.0,+0.0
# iter:  27 09:23:09   -12.293433c  -4.27  -4.74c  +1.1,+0.0,+0.0
# iter:  28 09:23:45   -12.293426c  -4.40  -4.75c  +1.1,+0.0,+0.0
# iter:  29 09:24:20   -12.293396c  -4.53  -4.73c  +1.1,+0.0,+0.0
# iter:  30 09:24:55   -12.293413c  -4.66  -4.79c  +1.1,+0.0,+0.0
# iter:  31 09:25:30   -12.293415c  -4.79  -4.85c  +1.1,+0.0,+0.0
# iter:  32 09:26:05   -12.293428c  -4.91  -4.85c  +1.1,+0.0,+0.0
# iter:  33 09:26:40   -12.293425c  -5.04  -4.86c  +1.1,+0.0,+0.0
# iter:  34 09:27:15   -12.293430c  -5.18  -4.84c  +1.1,+0.0,+0.0
# ic  +1.1,+0.0,-0.0
# iter:  35 07:31:59   -12.293513c  -5.30  -5.52c  +1.1,+0.0,-0.0
# iter:  36 07:32:26   -12.293515c  -5.42  -5.59c  +1.1,+0.0,-0.0
# iter:  37 07:32:53   -12.293511c  -5.56  -5.69c  +1.1,+0.0,-0.0
# iter:  38 07:33:20   -12.293511c  -5.69  -5.77c  +1.1,+0.0,-0.0
# iter:  39 07:33:47   -12.293512c  -5.82  -5.78c  +1.1,+0.0,-0.0
# iter:  40 07:34:14   -12.293508c  -5.96  -5.80c  +1.1,+0.0,-0.0
# iter:  41 07:34:41   -12.293508c  -6.10  -5.90c  +1.1,+0.0,-0.0
# iter:  42 07:35:08   -12.293511c  -6.23  -5.95c  +1.1,+0.0,-0.0
# iter:  43 07:35:36   -12.293511c  -6.35  -6.08c  +1.1,+0.0,-0.0
# iter:  44 07:36:03   -12.293511c  -6.48  -6.26c  +1.1,+0.0,-0.0
# iter:  45 07:36:30   -12.293511c  -6.61  -6.29c  +1.1,+0.0,-0.0
# iter:  46 07:36:57   -12.293511c  -6.73  -6.23c  +1.1,+0.0,-0.0
# iter:  47 07:37:25   -12.293512c  -6.87  -6.58c  +1.1,+0.0,-0.0
# iter:  48 07:37:52   -12.293512c  -7.00  -6.61c  +1.1,+0.0,-0.0
# iter:  49 07:38:19   -12.293511c  -7.14  -6.65c  +1.1,+0.0,-0.0
# iter:  50 07:38:47   -12.293511c  -7.28  -6.68c  +1.1,+0.0,-0.0
# iter:  51 07:39:14   -12.293511c  -7.43c -6.67c  +1.1,+0.0,-0.0
scf_steps: 51
energies:  # eV
  coulomb:          -7.673227
  zero:              0.067526
  xc:              -14.874147
  external:          0.000000
  kinetic:          10.208222
  spinorbit:         0.000000
  entropy:          -0.043772
  total:           -12.315397
  extrapolated:    -12.293511

dipole moment: [-3.587486, -6.212984, -1.246694]  # |e|*Ang

total magnetic moment: [1.144240, 0.008460, -0.000000]

local magnetic moments: [
  [ 1.112625, -0.000000, -0.000000],  # Ni 0
  [-0.007067, -0.031122, -0.000000],  # I  1
  [-0.007136, -0.031106, -0.000000]]  # I  2


Fermi level: -1.200 eV

kpt = [-0.455, -0.455, 0.000], weight = 0.008:
  Band      eig [eV]   occ [0-1]
     0       -64.941       1.000
   ...
    22        -3.019       1.000
    23        -2.819       1.000
    24        -2.792       1.000
    25        -2.341       1.000
    26        -2.129       1.000
    27        -2.106       1.000
    28        -1.812       0.998
    29        -1.775       0.997
    30        -0.941       0.070
    31        -0.894       0.045
    32         2.351       0.000
    33         2.603       0.000
    34         4.702       0.000
    35         4.758       0.000
    36         4.853       0.000
    37         5.073       0.000
   ...
    39         5.482       0.000

kpt = [-0.455, -0.364, 0.000], weight = 0.008:
  Band      eig [eV]   occ [0-1]
     0       -64.941       1.000
   ...
    22        -2.949       1.000
    23        -2.881       1.000
    24        -2.814       1.000
    25        -2.438       1.000
    26        -2.191       1.000
    27        -2.122       1.000
    28        -1.722       0.995
    29        -1.572       0.976
    30        -0.892       0.044
    31        -0.765       0.013
    32         1.917       0.000
    33         2.558       0.000
    34         4.131       0.000
    35         4.344       0.000
    36         4.643       0.000
    37         4.891       0.000
   ...
    39         5.487       0.000

kpt = [-0.455, -0.273, 0.000], weight = 0.008:
  Band      eig [eV]   occ [0-1]
     0       -64.941       1.000
   ...
    22        -2.984       1.000
    23        -2.895       1.000
    24        -2.791       1.000
    25        -2.445       1.000
    26        -2.247       1.000
    27        -2.104       1.000
    28        -1.614       0.984
    29        -1.425       0.905
    30        -0.881       0.040
    31        -0.641       0.004
    32         1.701       0.000
    33         2.302       0.000
    34         3.691       0.000
    35         4.209       0.000
    36         4.363       0.000
    37         4.678       0.000
   ...
    39         5.068       0.000
(only showing first 3 out of 121 k-points)

Gap: 0.386 eV
Transition (v -> c):
  (s=0, k=113, n=29, [0.45, -0.18, 0.00]) -> (s=0, k=10, n=30, [-0.45, 0.45, 0.00])
# Writing to gsq-18.gpw (mode='')

---

timing:  # [seconds]
  Total: 15578.659  # ━━━━━━━━━━━━━━━━━━━━━━━━━━━━━━━━━━━━━━━━━━━━━━━━━━━━━━━
  Init:     16.365  # 
  SCF:    1384.469  # ━━━━━

Max RSS: 1735.449  # MiB
 # ━━━━━━━━━━━━━━━━━━━━━━━━━━━━━━━━━━━━━━━━━━━━━━━━━━━━━━━╸

Max RSS: 1645.785  # MiB
