#  __  _  _
# | _ |_)|_||  |
# |__||  | ||/\| - 24.1.0

User:   s194113@n-62-28-31
Date:   Tue Apr 23 11:03:42 2024
Arch:   x86_64
Pid:    26488
CWD:    /zhome/87/8/147075/10302/10302_NM/NiI2/E_con
Python: 3.8.5
gpaw:   /zhome/87/8/147075/venv-name/gpaw/gpaw (10808453a8)
_gpaw:  /zhome/87/8/147075/venv-name/gpaw/
        _gpaw.cpython-38-x86_64-linux-gnu.so (10808453a8)
ase:    /zhome/87/8/147075/venv-name/ase/ase (version 3.23.0b1-c36115a2db)
numpy:  /zhome/87/8/147075/venv-name/lib/python3.8/site-packages/numpy (version 1.24.4)
scipy:  /zhome/87/8/147075/venv-name/lib/python3.8/site-packages/scipy (version 1.10.1)
libxc:  4.3.4
units:  Angstrom and eV
cores: 12
OpenMP: False
OMP_NUM_THREADS: 1

---
input parameters:
  kpts: 
    density: 6.0
    gamma: True
  magmoms: [[1, 0, 0], [0, 0, 0], [0, 0, 0]]
  mixer: 
    backend: 'pulay'
    beta: 0.05
    method: 'sum'
    nmaxold: 5
    weight: 100
  mode: 
    name: 'pw'
    ecut: 1000
    qspiral: array([0.19047619, 0.19047619, 0.        ])
  parallel: 
    kpt: None
    domain: 1
    band: 1
    order: 'kdb'
    stridebands: False
    augment_grids: False
    sl_auto: False
    sl_default: None
    sl_diagonalize: None
    sl_inverse_cholesky: None
    sl_lcao: None
    sl_lrtddft: None
    use_elpa: False
    elpasolver: '2stage'
    buffer_size: None
    gpu: False
  symmetry: 
    point_group: False
    time_reversal: False
  xc: 
    name: 'LDA'

#                        
#                        
#                        
#                        
#                        
#              I         
#                        
#        Ni              
#          I             
#                        
#                        
#                        
#                        
#                        

atoms: [  # symbols, positions [Ang] and initial magnetic moments
  [ Ni, [   0.000000,    0.000000,    7.513573], [ 1.000,  0.000,  0.000]], # 0
  [  I, [   1.985000,    1.146040,    9.027147], [ 0.000,  0.000,  0.000]], # 1
  [  I, [  -0.000000,    2.292081,    6.000000], [ 0.000,  0.000,  0.000]]] # 2

cell: [  # Ang
#     x            y            z
  [   3.970000,    0.000000,    0.000000],
  [  -1.985000,    3.438121,    0.000000],
  [   0.000000,   -0.000000,   15.027147]]

periodic: [True      , True      , False     ]
lengths:  [  3.970000,   3.970000,  15.027147]  # Ang
angles:   [ 90.000000,  90.000000, 120.000000]

symmetry:
  number of symmetries: 1
  rotations: [
    [[ 1,  0,  0], [ 0,  1,  0], [ 0,  0,  1]]]

bz sampling:
  number of bz points: 121
  number of ibz points: 121
  monkhorst-pack size: [11, 11, 1]
  monkhorst-pack shift: [0, 0, 0]
  points and weights: [
    [[ -0.45454545,  -0.45454545,   0.00000000], 0.00826446],  # 0
    [[ -0.45454545,  -0.36363636,   0.00000000], 0.00826446],  # 1
    [[ -0.45454545,  -0.27272727,   0.00000000], 0.00826446],  # 2
    [[ -0.45454545,  -0.18181818,   0.00000000], 0.00826446],  # 3
    [[ -0.45454545,  -0.09090909,   0.00000000], 0.00826446],  # 4
    [[ -0.45454545,   0.00000000,   0.00000000], 0.00826446],  # 5
    [[ -0.45454545,   0.09090909,   0.00000000], 0.00826446],  # 6
    [[ -0.45454545,   0.18181818,   0.00000000], 0.00826446],  # 7
    [[ -0.45454545,   0.27272727,   0.00000000], 0.00826446],  # 8
    [[ -0.45454545,   0.36363636,   0.00000000], 0.00826446],  # 9
    # ...
    [[  0.45454545,   0.45454545,   0.00000000], 0.00826446]]  # 120

plane wave coefficients: 14746
cutoff: 1000.0 eV

spin-components: 4  # (non-collinear spins)
bands: 40
valence electrons: 30.0
spin-degeneracy: 1
dtype: complex128

memory:
    wave functions: 2_283_860_480  # bytes  (190_321_706 per core)

parallelization:
    kpt:    12
    domain: 1
    band:   1

density:
  components: 4
  grid points: [ 30  30 112]
  charge: 0.0  # |e|

potential:
  grid points: [ 30  30 112]

species:
  Ni:
    name: Nickel
    id: 1802175e8de9ea26d9f4394ec1a7d564
    Z: 28.0
    valence: 16
    core: 12
    charge: 0.0
    file: /zhome/86/d/1666/PAW/gpaw-setups-0.9.20000/Ni.LDA.gz
    compensation charges: {type: gauss,
                           rc: 0.36,
                           lmax: 2}
    cutoffs: {filter: 2.14,
              core: 1.98}
    valence states:
      #              energy  rcut
      - 4s(2.00)    -5.858   1.164
      - 3p(6.00)   -71.266   1.207
      - 4p(0.00)    -1.338   1.207
      - 3d(8.00)    -9.141   1.138
      -  s          21.353   1.164
      -  d          18.071   1.138
  
    # Using partial waves for Ni as LCAO basis

  I:
    name: Iodine
    id: b559721c0c096a7b4c8fc0e0f4de5cf4
    Z: 53.0
    valence: 7
    core: 46
    charge: 0.0
    file: /zhome/86/d/1666/PAW/gpaw-setups-0.9.20000/I.LDA.gz
    compensation charges: {type: gauss,
                           rc: 0.37,
                           lmax: 2}
    cutoffs: {filter: 2.06,
              core: 2.90}
    valence states:
      #              energy  rcut
      - 5s(2.00)   -17.626   1.164
      - 5p(5.00)    -7.241   1.164
      -  s           9.585   1.164
      -  p          19.970   1.164
      -  d           0.000   1.164
  
    # Using partial waves for I as LCAO basis

Reference energy: -428067.566327  # eV

eigensolver:
  name: 'Davidson'
  niter: 2
  converge_bands: 'occupied'
Density mixing:
  Method: sum
  Backend: pulay
  Linear mixing parameter: 0.05
  old densities: 5
  Damping of long wavelength oscillations: 100
occupation numbers:
  Fermi-Dirac:
    width: 0.1000  # eV
  

poisson solver:
  ecut: 8000.0  # eV

xc functional:
  name: None

convergence criteria:
- Maximum [total energy] change in last 3 cyles: 0.0005 eV / valence electron
- Maximum integral of absolute [dens]ity change: 0.0001 electrons / valence electron
- Maximum integral of absolute [eigenst]ate change: 4e-08 eV^2 / valence electron
maximum number of iterations: 333

#      iter     time        total  log10-change:
#                          energy   eigst   dens
# iter:   1 11:04:35   -13.579813                  +1.0,+0.0,+0.0
# iter:   2 11:05:10   -12.635880   +0.02  -1.31   +0.9,+0.0,-0.0
# iter:   3 11:05:45   -12.226272   -0.49  -1.45   +1.0,+0.0,-0.0
# iter:   4 11:06:20   -12.298097   -1.13  -1.68   +1.1,+0.0,+0.0
# iter:   5 11:06:55   -12.567824   -1.28  -1.66   +1.2,+0.0,+0.0
# iter:   6 11:07:30   -12.315412   -1.52  -1.73   +1.2,+0.0,+0.0
# iter:   7 11:08:04   -12.304876   -1.82  -2.14   +1.2,+0.0,+0.0
# iter:   8 11:08:39   -12.300275   -2.01  -2.32   +1.3,+0.0,+0.0
# iter:   9 11:09:14   -12.301160c  -2.21  -2.67   +1.3,+0.0,+0.0
# iter:  10 11:09:49   -12.302209c  -2.40  -2.99   +1.3,+0.0,+0.0
# iter:  11 11:10:24   -12.305779c  -2.56  -2.86   +1.4,+0.0,-0.0
# iter:  12 11:10:59   -12.306666c  -2.72  -3.50   +1.4,+0.0,-0.0
# iter:  13 11:11:34   -12.306747c  -2.86  -3.67   +1.4,+0.0,-0.0
# iter:  14 11:12:09   -12.306694c  -3.00  -3.73   +1.4,+0.0,-0.0
# iter:  15 11:12:44   -12.306924c  -3.14  -3.72   +1.4,+0.0,-0.0
# iter:  16 11:13:19   -12.306968c  -3.27  -3.74   +1.4,+0.0,-0.0
# iter:  17 11:13:54   -12.307008c  -3.41  -3.77   +1.4,+0.0,-0.0
# iter:  18 11:14:29   -12.306983c  -3.54  -3.77   +1.4,+0.0,-0.0
# iter:  19 11:15:04   -12.307206c  -3.67  -3.76   +1.4,+0.0,-0.0
# iter:  20 11:15:38   -12.307401c  -3.80  -3.78   +1.4,+0.0,-0.0
# iter:  21 11:16:13   -12.307878c  -3.92  -3.80   +1.4,+0.0,-0.0
# iter:  22 11:16:48   -12.308145c  -4.06  -3.89   +1.4,+0.0,-0.0
# iter:  23 11:17:23   -12.308149c  -4.19  -4.03c  +1.4,+0.0,-0.0
# iter:  24 11:17:58   -12.308519c  -4.30  -4.15c  +1.4,+0.0,-0.0
# iter:  25 11:18:33   -12.308648c  -4.46  -4.12c  +1.4,+0.0,-0.0
# iter:  26 11:19:07   -12.308667c  -4.60  -4.86c  +1.4,+0.0,-0.0
# iter:  27 11:19:42   -12.308663c  -4.73  -4.86c  +1.4,+0.0,-0.0
# iter:  28 11:20:17   -12.308677c  -4.86  -4.85c  +1.4,+0.0,-0.0
# iter:  29 11:20:52   -12.308677c  -4.99  -4.87c  +1.4,+0.0,-0.0
# iter:  30 11:21:27   -12.308682c  -5.12  -4.88c  +1.4,+0.0,-0.0
# iter:  31 11:22:01   -12.308678c  -5.26  -4.87c  +1.4,+0.0,-0.0
# iter:  32 11:22:36   -12.308682c  -5.39  -4.89c  +1.4,+0.0,-0.0
# iter:  33 11:23:11   -12.308729c  -5.52  -4.91c  +1.4,+0.0,-0.0
# iter:  34 11:23:46   -12.308741c  -5.66  -4.96c  +1.4,+0.0,-0.0
# iter:  35 11:24:21   -12.308721c  -5.79  -5.06c  +1.4,+0.0,-0.0
# iter:  36 11:24:55   -12.308719c  -5.93  -5.23c  +1.4,+0.0,-0.0
# iter:  37 11:25:30   -12.308715c  -6.07  -5.28c  +1.4,+0.0,-0.0
# iter:  38 11:26:05   -12.308709c  -6.21  -5.33c  +1.4,+0.0,-0.0
# iter:  39 11:26:40   -12.308704c  -6.36  -5.39c  +1.4,+0.0,-0.0
# iter:  40 11:27:15   -12.308706c  -6.51  -5.40c  +1.4,+0.0,-0.0
# iter:  41 11:27:50   -12.308705c  -6.66  -5.41c  +1.4,+0.0,-0.0
# iter:  42 11:28:24   -12.308705c  -6.80  -5.40c  +1.4,+0.0,+0.0
# iter:  43 11:28:59   -12.308707c  -6.95  -5.45c  +1.4,+0.0,+0.0
# iter:  44 11:29:34   -12.308710c  -7.09  -5.58c  +1.4,+0.0,+0.0
# iter:  45 11:30:08   -12.308717c  -7.23  -5.61c  +1.4,+0.0,+0.0
# iter:  46 11:30:43   -12.308718c  -7.37  -5.76c  +1.4,+0.0,+0.0
# iter:  47 11:31:18   -12.308719c  -7.52c -5.87c  +1.4,+0.0,+0.0
scf_steps: 47
energies:  # eV
  coulomb:          -7.641523
  zero:              0.067430
  xc:              -14.885274
  external:          0.000000
  kinetic:          10.170025
  spinorbit:         0.000000
  entropy:          -0.038754
  total:           -12.328096
  extrapolated:    -12.308719

dipole moment: [-3.901269, -6.756376, -3.280504]  # |e|*Ang

total magnetic moment: [1.415313, 0.025638, 0.000000]

local magnetic moments: [
  [ 1.123838,  0.000000, -0.000000],  # Ni 0
  [ 0.037072, -0.094375,  0.000000],  # I  1
  [ 0.037015, -0.094397,  0.000000]]  # I  2


Fermi level: -1.189 eV

kpt = [-0.455, -0.455, 0.000], weight = 0.008:
  Band      eig [eV]   occ [0-1]
     0       -64.951       1.000
   ...
    22        -3.049       1.000
    23        -2.899       1.000
    24        -2.827       1.000
    25        -2.310       1.000
    26        -2.147       1.000
    27        -2.111       1.000
    28        -1.769       0.997
    29        -1.685       0.993
    30        -0.850       0.032
    31        -0.785       0.017
    32         1.859       0.000
    33         2.582       0.000
    34         4.095       0.000
    35         4.729       0.000
    36         4.770       0.000
    37         4.781       0.000
   ...
    39         5.428       0.000

kpt = [-0.455, -0.364, 0.000], weight = 0.008:
  Band      eig [eV]   occ [0-1]
     0       -64.951       1.000
   ...
    22        -3.024       1.000
    23        -2.912       1.000
    24        -2.875       1.000
    25        -2.410       1.000
    26        -2.157       1.000
    27        -2.144       1.000
    28        -1.723       0.995
    29        -1.570       0.978
    30        -0.836       0.028
    31        -0.687       0.007
    32         1.597       0.000
    33         2.568       0.000
    34         3.634       0.000
    35         4.440       0.000
    36         4.750       0.000
    37         4.820       0.000
   ...
    39         6.026       0.000

kpt = [-0.455, -0.273, 0.000], weight = 0.008:
  Band      eig [eV]   occ [0-1]
     0       -64.951       1.000
   ...
    22        -2.944       1.000
    23        -2.924       1.000
    24        -2.801       1.000
    25        -2.430       1.000
    26        -2.166       1.000
    27        -2.133       1.000
    28        -1.693       0.994
    29        -1.516       0.963
    30        -0.887       0.047
    31        -0.703       0.008
    32         1.912       0.000
    33         2.350       0.000
    34         3.990       0.000
    35         4.492       0.000
    36         4.500       0.000
    37         4.993       0.000
   ...
    39         5.425       0.000
(only showing first 3 out of 121 k-points)

Gap: 0.387 eV
Transition (v -> c):
  (s=0, k=82, n=29, [0.18, 0.00, 0.00]) -> (s=0, k=30, n=30, [-0.27, 0.27, 0.00])
# Writing to gsq-22.gpw (mode='')

---

timing:  # [seconds]
  Total: 1657.066  # ━━━━━━━━━━━━━━━━━━━━━━━━━━━━━━━━━━━━━━━━━━━━━━━━━━━━━━━━
  Init:    20.576  # ╸
  SCF:   1636.128  # ━━━━━━━━━━━━━━━━━━━━━━━━━━━━━━━━━━━━━━━━━━━━━━━━━━━━━━━╸

Max RSS: 1645.785  # MiB
