#  __  _  _
# | _ |_)|_||  |
# |__||  | ||/\| - 24.1.0

User:   s194113@n-62-28-31
Date:   Tue Apr 23 09:37:44 2024
Arch:   x86_64
Pid:    26488
CWD:    /zhome/87/8/147075/10302/10302_NM/NiI2/E_con
Python: 3.8.5
gpaw:   /zhome/87/8/147075/venv-name/gpaw/gpaw (10808453a8)
_gpaw:  /zhome/87/8/147075/venv-name/gpaw/
        _gpaw.cpython-38-x86_64-linux-gnu.so (10808453a8)
ase:    /zhome/87/8/147075/venv-name/ase/ase (version 3.23.0b1-c36115a2db)
numpy:  /zhome/87/8/147075/venv-name/lib/python3.8/site-packages/numpy (version 1.24.4)
scipy:  /zhome/87/8/147075/venv-name/lib/python3.8/site-packages/scipy (version 1.10.1)
libxc:  4.3.4
units:  Angstrom and eV
cores: 12
OpenMP: False
OMP_NUM_THREADS: 1

---
input parameters:
  kpts: 
    density: 6.0
    gamma: True
  magmoms: [[1, 0, 0], [0, 0, 0], [0, 0, 0]]
  mixer: 
    backend: 'pulay'
    beta: 0.05
    method: 'sum'
    nmaxold: 5
    weight: 100
  mode: 
    name: 'pw'
    ecut: 1000
    qspiral: array([0.26190476, 0.26190476, 0.        ])
  parallel: 
    kpt: None
    domain: 1
    band: 1
    order: 'kdb'
    stridebands: False
    augment_grids: False
    sl_auto: False
    sl_default: None
    sl_diagonalize: None
    sl_inverse_cholesky: None
    sl_lcao: None
    sl_lrtddft: None
    use_elpa: False
    elpasolver: '2stage'
    buffer_size: None
    gpu: False
  symmetry: 
    point_group: False
    time_reversal: False
  xc: 
    name: 'LDA'

#                        
#                        
#                        
#                        
#                        
#              I         
#                        
#        Ni              
#          I             
#                        
#                        
#                        
#                        
#                        

atoms: [  # symbols, positions [Ang] and initial magnetic moments
  [ Ni, [   0.000000,    0.000000,    7.513573], [ 1.000,  0.000,  0.000]], # 0
  [  I, [   1.985000,    1.146040,    9.027147], [ 0.000,  0.000,  0.000]], # 1
  [  I, [  -0.000000,    2.292081,    6.000000], [ 0.000,  0.000,  0.000]]] # 2

cell: [  # Ang
#     x            y            z
  [   3.970000,    0.000000,    0.000000],
  [  -1.985000,    3.438121,    0.000000],
  [   0.000000,   -0.000000,   15.027147]]

periodic: [True      , True      , False     ]
lengths:  [  3.970000,   3.970000,  15.027147]  # Ang
angles:   [ 90.000000,  90.000000, 120.000000]

symmetry:
  number of symmetries: 1
  rotations: [
    [[ 1,  0,  0], [ 0,  1,  0], [ 0,  0,  1]]]

bz sampling:
  number of bz points: 121
  number of ibz points: 121
  monkhorst-pack size: [11, 11, 1]
  monkhorst-pack shift: [0, 0, 0]
  points and weights: [
    [[ -0.45454545,  -0.45454545,   0.00000000], 0.00826446],  # 0
    [[ -0.45454545,  -0.36363636,   0.00000000], 0.00826446],  # 1
    [[ -0.45454545,  -0.27272727,   0.00000000], 0.00826446],  # 2
    [[ -0.45454545,  -0.18181818,   0.00000000], 0.00826446],  # 3
    [[ -0.45454545,  -0.09090909,   0.00000000], 0.00826446],  # 4
    [[ -0.45454545,   0.00000000,   0.00000000], 0.00826446],  # 5
    [[ -0.45454545,   0.09090909,   0.00000000], 0.00826446],  # 6
    [[ -0.45454545,   0.18181818,   0.00000000], 0.00826446],  # 7
    [[ -0.45454545,   0.27272727,   0.00000000], 0.00826446],  # 8
    [[ -0.45454545,   0.36363636,   0.00000000], 0.00826446],  # 9
    # ...
    [[  0.45454545,   0.45454545,   0.00000000], 0.00826446]]  # 120

plane wave coefficients: 14746
cutoff: 1000.0 eV

spin-components: 4  # (non-collinear spins)
bands: 40
valence electrons: 30.0
spin-degeneracy: 1
dtype: complex128

memory:
    wave functions: 2_283_860_480  # bytes  (190_321_706 per core)

parallelization:
    kpt:    12
    domain: 1
    band:   1

density:
  components: 4
  grid points: [ 30  30 112]
  charge: 0.0  # |e|

potential:
  grid points: [ 30  30 112]

species:
  Ni:
    name: Nickel
    id: 1802175e8de9ea26d9f4394ec1a7d564
    Z: 28.0
    valence: 16
    core: 12
    charge: 0.0
    file: /zhome/86/d/1666/PAW/gpaw-setups-0.9.20000/Ni.LDA.gz
    compensation charges: {type: gauss,
                           rc: 0.36,
                           lmax: 2}
    cutoffs: {filter: 2.14,
              core: 1.98}
    valence states:
      #              energy  rcut
      - 4s(2.00)    -5.858   1.164
      - 3p(6.00)   -71.266   1.207
      - 4p(0.00)    -1.338   1.207
      - 3d(8.00)    -9.141   1.138
      -  s          21.353   1.164
      -  d          18.071   1.138
  
    # Using partial waves for Ni as LCAO basis

  I:
    name: Iodine
    id: b559721c0c096a7b4c8fc0e0f4de5cf4
    Z: 53.0
    valence: 7
    core: 46
    charge: 0.0
    file: /zhome/86/d/1666/PAW/gpaw-setups-0.9.20000/I.LDA.gz
    compensation charges: {type: gauss,
                           rc: 0.37,
                           lmax: 2}
    cutoffs: {filter: 2.06,
              core: 2.90}
    valence states:
      #              energy  rcut
      - 5s(2.00)   -17.626   1.164
      - 5p(5.00)    -7.241   1.164
      -  s           9.585   1.164
      -  p          19.970   1.164
      -  d           0.000   1.164
  
    # Using partial waves for I as LCAO basis

Reference energy: -428067.566327  # eV

eigensolver:
  name: 'Davidson'
  niter: 2
  converge_bands: 'occupied'
Density mixing:
  Method: sum
  Backend: pulay
  Linear mixing parameter: 0.05
  old densities: 5
  Damping of long wavelength oscillations: 100
occupation numbers:
  Fermi-Dirac:
    width: 0.1000  # eV
  

poisson solver:
  ecut: 8000.0  # eV

xc functional:
  name: None

convergence criteria:
- Maximum [total energy] change in last 3 cyles: 0.0005 eV / valence electron
- Maximum integral of absolute [dens]ity change: 0.0001 electrons / valence electron
- Maximum integral of absolute [eigenst]ate change: 4e-08 eV^2 / valence electron
maximum number of iterations: 333

#      iter     time        total  log10-change:
#                          energy   eigst   dens
# iter:   1 09:38:37   -13.190220                  +1.0,+0.0,+0.0
# iter:   2 09:39:12   -12.551494   +0.27  -1.31   +0.8,+0.0,-0.0
# iter:   3 09:39:47   -12.197754   -0.35  -1.45   +0.8,+0.0,+0.0
# iter:   4 09:40:22   -12.253596   -0.93  -1.68   +0.9,+0.0,+0.0
# iter:   5 09:40:57   -12.582202   -1.08  -1.67   +1.0,+0.0,+0.0
# iter:   6 09:41:31   -12.283882   -1.31  -1.70   +1.0,+0.0,+0.0
# iter:   7 09:42:06   -12.287176   -1.60  -2.20   +1.0,+0.0,+0.0
# iter:   8 09:42:41   -12.282655c  -1.78  -2.32   +1.1,+0.0,-0.0
# iter:   9 09:43:16   -12.283397c  -1.95  -2.66   +1.1,+0.0,-0.0
# iter:  10 09:43:50   -12.286463c  -2.10  -2.93   +1.1,+0.0,-0.0
# iter:  11 09:44:25   -12.290457c  -2.23  -2.84   +1.2,+0.0,+0.0
# iter:  12 09:45:00   -12.291136c  -2.41  -3.23   +1.2,+0.0,-0.0
# iter:  13 09:45:35   -12.291287c  -2.55  -3.59   +1.2,+0.0,+0.0
# iter:  14 09:46:10   -12.291455c  -2.69  -3.64   +1.2,+0.0,+0.0
# iter:  15 09:46:44   -12.292235c  -2.82  -3.73   +1.2,+0.0,+0.0
# iter:  16 09:47:19   -12.292414c  -2.95  -3.77   +1.2,+0.0,+0.0
# iter:  17 09:47:54   -12.292521c  -3.09  -3.75   +1.2,+0.0,+0.0
# iter:  18 09:48:29   -12.292970c  -3.22  -3.84   +1.2,+0.0,+0.0
# iter:  19 09:49:03   -12.293277c  -3.35  -3.93   +1.2,+0.0,+0.0
# iter:  20 09:49:38   -12.293452c  -3.47  -4.03c  +1.2,+0.0,+0.0
# iter:  21 09:50:13   -12.293572c  -3.60  -3.94   +1.2,+0.0,+0.0
# iter:  22 09:50:48   -12.293681c  -3.73  -4.03c  +1.2,+0.0,+0.0
# iter:  23 09:51:22   -12.293659c  -3.86  -4.03c  +1.2,+0.0,+0.0
# iter:  24 09:51:57   -12.293864c  -3.99  -4.02c  +1.2,+0.0,+0.0
# iter:  25 09:52:32   -12.293852c  -4.12  -4.09c  +1.2,+0.0,+0.0
# iter:  26 09:53:06   -12.293820c  -4.25  -4.12c  +1.2,+0.0,+0.0
# iter:  27 09:53:41   -12.294324c  -4.36  -4.08c  +1.2,+0.0,+0.0
# iter:  28 09:54:16   -12.294294c  -4.50  -4.18c  +1.2,+0.0,+0.0
# iter:  29 09:54:50   -12.294232c  -4.62  -4.29c  +1.2,+0.0,+0.0
# iter:  30 09:55:25   -12.294231c  -4.75  -4.62c  +1.2,+0.0,+0.0
# iter:  31 09:56:00   -12.294210c  -4.88  -4.67c  +1.2,+0.0,+0.0
# iter:  32 09:56:34   -12.294204c  -5.00  -4.92c  +1.2,+0.0,+0.0
# iter:  33 09:57:09   -12.294214c  -5.13  -4.97c  +1.2,+0.0,+0.0
# iter:  34 09:57:44   -12.294235c  -5.26  -5.03c  +1.2,+0.0,+0.0
# iter:  35 09:58:18   -12.294294c  -5.38  -5.10c  +1.2,+0.0,+0.0
# iter:  36 09:58:53   -12.294289c  -5.52  -5.61c  +1.2,+0.0,+0.0
# iter:  37 09:59:28   -12.294287c  -5.65  -5.60c  +1.2,+0.0,+0.0
# iter:  38 10:00:03   -12.294293c  -5.78  -5.52c  +1.2,+0.0,+0.0
# iter:  39 10:00:38   -12.294294c  -5.91  -5.91c  +1.2,+0.0,+0.0
# iter:  40 10:01:13   -12.294295c  -6.04  -5.99c  +1.2,+0.0,+0.0
# iter:  41 10:01:48   -12.294293c  -6.18  -5.99c  +1.2,+0.0,+0.0
# iter:  42 10:02:22   -12.294294c  -6.30  -5.94c  +1.2,+0.0,+0.0
# iter:  43 10:02:57   -12.294294c  -6.44  -5.98c  +1.2,+0.0,+0.0
# iter:  44 10:03:31   -12.294294c  -6.58  -5.97c  +1.2,+0.0,+0.0
# iter:  45 10:04:06   -12.294294c  -6.71  -5.98c  +1.2,+0.0,+0.0
# iter:  46 10:04:41   -12.294292c  -6.85  -6.00c  +1.2,+0.0,+0.0
# iter:  47 10:05:16   -12.294297c  -6.99  -5.95c  +1.2,+0.0,+0.0
# iter:  48 10:05:51   -12.294298c  -7.13  -5.97c  +1.2,+0.0,+0.0
# iter:  49 10:06:26   -12.294297c  -7.27  -6.02c  +1.2,+0.0,+0.0
# iter:  50 10:07:01   -12.294297c  -7.41c -6.00c  +1.2,+0.0,+0.0
scf_steps: 50
energies:  # eV
  coulomb:          -7.678751
  zero:              0.067403
  xc:              -14.876674
  external:          0.000000
  kinetic:          10.215711
  spinorbit:         0.000000
  entropy:          -0.043974
  total:           -12.316284
  extrapolated:    -12.294297

dipole moment: [-3.686538, -6.384479, -1.687323]  # |e|*Ang

total magnetic moment: [1.203547, 0.013271, 0.000000]

local magnetic moments: [
  [ 1.114118, -0.000000,  0.000000],  # Ni 0
  [-0.003625, -0.048867,  0.000000],  # I  1
  [-0.003699, -0.048862,  0.000000]]  # I  2


Fermi level: -1.198 eV

kpt = [-0.455, -0.455, 0.000], weight = 0.008:
  Band      eig [eV]   occ [0-1]
     0       -64.943       1.000
   ...
    22        -3.025       1.000
    23        -2.838       1.000
    24        -2.791       1.000
    25        -2.336       1.000
    26        -2.138       1.000
    27        -2.103       1.000
    28        -1.804       0.998
    29        -1.750       0.996
    30        -0.939       0.070
    31        -0.866       0.035
    32         2.246       0.000
    33         2.598       0.000
    34         4.639       0.000
    35         4.826       0.000
    36         4.936       0.000
    37         4.989       0.000
   ...
    39         5.215       0.000

kpt = [-0.455, -0.364, 0.000], weight = 0.008:
  Band      eig [eV]   occ [0-1]
     0       -64.943       1.000
   ...
    22        -2.966       1.000
    23        -2.886       1.000
    24        -2.831       1.000
    25        -2.446       1.000
    26        -2.186       1.000
    27        -2.130       1.000
    28        -1.720       0.995
    29        -1.551       0.972
    30        -0.878       0.039
    31        -0.741       0.010
    32         1.797       0.000
    33         2.552       0.000
    34         3.947       0.000
    35         4.437       0.000
    36         4.557       0.000
    37         4.863       0.000
   ...
    39         5.627       0.000

kpt = [-0.455, -0.273, 0.000], weight = 0.008:
  Band      eig [eV]   occ [0-1]
     0       -64.943       1.000
   ...
    22        -2.973       1.000
    23        -2.902       1.000
    24        -2.802       1.000
    25        -2.467       1.000
    26        -2.228       1.000
    27        -2.113       1.000
    28        -1.627       0.986
    29        -1.428       0.909
    30        -0.882       0.041
    31        -0.639       0.004
    32         1.699       0.000
    33         2.300       0.000
    34         3.689       0.000
    35         4.272       0.000
    36         4.363       0.000
    37         4.762       0.000
   ...
    39         5.083       0.000
(only showing first 3 out of 121 k-points)

Gap: 0.369 eV
Transition (v -> c):
  (s=0, k=17, n=29, [-0.36, 0.09, 0.00]) -> (s=0, k=110, n=30, [0.45, -0.45, 0.00])
# Writing to gsq-19.gpw (mode='')

