#  __  _  _
# | _ |_)|_||  |
# |__||  | ||/\| - 24.1.0

User:   s194113@n-62-28-31
Date:   Tue Apr 23 05:31:49 2024
Arch:   x86_64
Pid:    26488
CWD:    /zhome/87/8/147075/10302/10302_NM/NiI2/E_con
Python: 3.8.5
gpaw:   /zhome/87/8/147075/venv-name/gpaw/gpaw (10808453a8)
_gpaw:  /zhome/87/8/147075/venv-name/gpaw/
        _gpaw.cpython-38-x86_64-linux-gnu.so (10808453a8)
ase:    /zhome/87/8/147075/venv-name/ase/ase (version 3.23.0b1-c36115a2db)
numpy:  /zhome/87/8/147075/venv-name/lib/python3.8/site-packages/numpy (version 1.24.4)
scipy:  /zhome/87/8/147075/venv-name/lib/python3.8/site-packages/scipy (version 1.10.1)
libxc:  4.3.4
units:  Angstrom and eV
cores: 12
OpenMP: False
OMP_NUM_THREADS: 1

---
input parameters:
  kpts: 
    density: 6.0
    gamma: True
  magmoms: [[1, 0, 0], [0, 0, 0], [0, 0, 0]]
  mixer: 
    backend: 'pulay'
    beta: 0.05
    method: 'sum'
    nmaxold: 5
    weight: 100
  mode: 
    name: 'pw'
    ecut: 1000
    qspiral: array([0.47222222, 0.05555556, 0.        ])
  parallel: 
    kpt: None
    domain: 1
    band: 1
    order: 'kdb'
    stridebands: False
    augment_grids: False
    sl_auto: False
    sl_default: None
    sl_diagonalize: None
    sl_inverse_cholesky: None
    sl_lcao: None
    sl_lrtddft: None
    use_elpa: False
    elpasolver: '2stage'
    buffer_size: None
    gpu: False
  symmetry: 
    point_group: False
    time_reversal: False
  xc: 
    name: 'LDA'

#                        
#                        
#                        
#                        
#                        
#              I         
#                        
#        Ni              
#          I             
#                        
#                        
#                        
#                        
#                        

atoms: [  # symbols, positions [Ang] and initial magnetic moments
  [ Ni, [   0.000000,    0.000000,    7.513573], [ 1.000,  0.000,  0.000]], # 0
  [  I, [   1.985000,    1.146040,    9.027147], [ 0.000,  0.000,  0.000]], # 1
  [  I, [  -0.000000,    2.292081,    6.000000], [ 0.000,  0.000,  0.000]]] # 2

cell: [  # Ang
#     x            y            z
  [   3.970000,    0.000000,    0.000000],
  [  -1.985000,    3.438121,    0.000000],
  [   0.000000,   -0.000000,   15.027147]]

periodic: [True      , True      , False     ]
lengths:  [  3.970000,   3.970000,  15.027147]  # Ang
angles:   [ 90.000000,  90.000000, 120.000000]

symmetry:
  number of symmetries: 1
  rotations: [
    [[ 1,  0,  0], [ 0,  1,  0], [ 0,  0,  1]]]

bz sampling:
  number of bz points: 121
  number of ibz points: 121
  monkhorst-pack size: [11, 11, 1]
  monkhorst-pack shift: [0, 0, 0]
  points and weights: [
    [[ -0.45454545,  -0.45454545,   0.00000000], 0.00826446],  # 0
    [[ -0.45454545,  -0.36363636,   0.00000000], 0.00826446],  # 1
    [[ -0.45454545,  -0.27272727,   0.00000000], 0.00826446],  # 2
    [[ -0.45454545,  -0.18181818,   0.00000000], 0.00826446],  # 3
    [[ -0.45454545,  -0.09090909,   0.00000000], 0.00826446],  # 4
    [[ -0.45454545,   0.00000000,   0.00000000], 0.00826446],  # 5
    [[ -0.45454545,   0.09090909,   0.00000000], 0.00826446],  # 6
    [[ -0.45454545,   0.18181818,   0.00000000], 0.00826446],  # 7
    [[ -0.45454545,   0.27272727,   0.00000000], 0.00826446],  # 8
    [[ -0.45454545,   0.36363636,   0.00000000], 0.00826446],  # 9
    # ...
    [[  0.45454545,   0.45454545,   0.00000000], 0.00826446]]  # 120

plane wave coefficients: 14746
cutoff: 1000.0 eV

spin-components: 4  # (non-collinear spins)
bands: 40
valence electrons: 30.0
spin-degeneracy: 1
dtype: complex128

memory:
    wave functions: 2_283_860_480  # bytes  (190_321_706 per core)

parallelization:
    kpt:    12
    domain: 1
    band:   1

density:
  components: 4
  grid points: [ 30  30 112]
  charge: 0.0  # |e|

potential:
  grid points: [ 30  30 112]

species:
  Ni:
    name: Nickel
    id: 1802175e8de9ea26d9f4394ec1a7d564
    Z: 28.0
    valence: 16
    core: 12
    charge: 0.0
    file: /zhome/86/d/1666/PAW/gpaw-setups-0.9.20000/Ni.LDA.gz
    compensation charges: {type: gauss,
                           rc: 0.36,
                           lmax: 2}
    cutoffs: {filter: 2.14,
              core: 1.98}
    valence states:
      #              energy  rcut
      - 4s(2.00)    -5.858   1.164
      - 3p(6.00)   -71.266   1.207
      - 4p(0.00)    -1.338   1.207
      - 3d(8.00)    -9.141   1.138
      -  s          21.353   1.164
      -  d          18.071   1.138
  
    # Using partial waves for Ni as LCAO basis

  I:
    name: Iodine
    id: b559721c0c096a7b4c8fc0e0f4de5cf4
    Z: 53.0
    valence: 7
    core: 46
    charge: 0.0
    file: /zhome/86/d/1666/PAW/gpaw-setups-0.9.20000/I.LDA.gz
    compensation charges: {type: gauss,
                           rc: 0.37,
                           lmax: 2}
    cutoffs: {filter: 2.06,
              core: 2.90}
    valence states:
      #              energy  rcut
      - 5s(2.00)   -17.626   1.164
      - 5p(5.00)    -7.241   1.164
      -  s           9.585   1.164
      -  p          19.970   1.164
      -  d           0.000   1.164
  
    # Using partial waves for I as LCAO basis

Reference energy: -428067.566327  # eV

eigensolver:
  name: 'Davidson'
  niter: 2
  converge_bands: 'occupied'
Density mixing:
  Method: sum
  Backend: pulay
  Linear mixing parameter: 0.05
  old densities: 5
  Damping of long wavelength oscillations: 100
occupation numbers:
  Fermi-Dirac:
    width: 0.1000  # eV
  

poisson solver:
  ecut: 8000.0  # eV

xc functional:
  name: None

convergence criteria:
- Maximum [total energy] change in last 3 cyles: 0.0005 eV / valence electron
- Maximum integral of absolute [dens]ity change: 0.0001 electrons / valence electron
- Maximum integral of absolute [eigenst]ate change: 4e-08 eV^2 / valence electron
maximum number of iterations: 333

#      iter     time        total  log10-change:
#                          energy   eigst   dens
# iter:   1 05:32:41   -12.997159                  +1.0,+0.0,+0.0
# iter:   2 05:33:16   -12.488340   +0.35  -1.31   +0.8,-0.0,+0.0
# iter:   3 05:33:51   -12.158032   -0.29  -1.45   +0.7,+0.0,-0.0
# iter:   4 05:34:25   -12.208062   -0.85  -1.68   +0.8,+0.0,+0.0
# iter:   5 05:35:00   -12.592831   -1.00  -1.67   +0.8,+0.0,+0.0
# iter:   6 05:35:34   -12.230288   -1.22  -1.66   +0.8,+0.0,+0.0
# iter:   7 05:36:08   -12.232154   -1.50  -2.21   +0.9,+0.0,+0.0
# iter:   8 05:36:42   -12.234506c  -1.69  -2.36   +0.9,+0.0,+0.0
# iter:   9 05:37:16   -12.236120c  -1.84  -2.57   +1.0,+0.0,+0.0
# iter:  10 05:37:51   -12.237424c  -2.00  -3.02   +1.0,+0.0,+0.0
# iter:  11 05:38:25   -12.246005c  -2.15  -2.94   +1.0,+0.0,+0.0
# iter:  12 05:38:59   -12.247716c  -2.28  -3.30   +1.1,+0.0,+0.0
# iter:  13 05:39:34   -12.247983c  -2.43  -3.56   +1.1,+0.0,-0.0
# iter:  14 05:40:08   -12.247558c  -2.56  -3.59   +1.0,+0.0,-0.0
# iter:  15 05:40:42   -12.249505c  -2.69  -3.52   +1.1,+0.0,-0.0
# iter:  16 05:41:16   -12.250158c  -2.81  -3.69   +1.1,+0.0,-0.0
# iter:  17 05:41:51   -12.249879c  -2.94  -3.64   +1.1,+0.0,-0.0
# iter:  18 05:42:25   -12.250498c  -3.07  -3.59   +1.1,+0.0,-0.0
# iter:  19 05:43:00   -12.250484c  -3.20  -3.69   +1.1,+0.0,-0.0
# iter:  20 05:43:34   -12.250767c  -3.33  -3.71   +1.1,+0.0,-0.0
# iter:  21 05:44:08   -12.250631c  -3.46  -3.70   +1.1,+0.0,-0.0
# iter:  22 05:44:43   -12.249887c  -3.59  -3.70   +1.1,+0.0,+0.0
# iter:  23 05:45:17   -12.250480c  -3.73  -3.72   +1.1,+0.0,+0.0
# iter:  24 05:45:52   -12.250357c  -3.86  -3.73   +1.1,+0.0,+0.0
# iter:  25 05:46:27   -12.250673c  -3.99  -3.71   +1.1,+0.0,+0.0
# iter:  26 05:47:01   -12.250442c  -4.12  -3.72   +1.1,+0.0,+0.0
# iter:  27 05:47:36   -12.251720c  -4.21  -3.72   +1.1,+0.0,+0.0
# iter:  28 05:48:10   -12.252537c  -4.31  -3.79   +1.1,+0.0,+0.0
# iter:  29 05:48:45   -12.253698c  -4.33  -3.89   +1.1,+0.0,-0.0
# iter:  30 05:49:19   -12.253670c  -4.61  -4.31c  +1.1,+0.0,-0.0
# iter:  31 05:49:54   -12.253611c  -4.76  -4.30c  +1.1,+0.0,-0.0
# iter:  32 05:50:28   -12.253812c  -4.88  -4.24c  +1.1,+0.0,-0.0
# iter:  33 05:51:03   -12.253871c  -5.02  -4.43c  +1.1,+0.0,-0.0
# iter:  34 05:51:37   -12.253794c  -5.15  -4.52c  +1.1,+0.0,-0.0
# iter:  35 05:52:12   -12.253760c  -5.28  -4.58c  +1.1,+0.0,-0.0
# iter:  36 05:52:46   -12.253745c  -5.41  -4.60c  +1.1,+0.0,-0.0
# iter:  37 05:53:20   -12.253755c  -5.55  -4.65c  +1.1,+0.0,-0.0
# iter:  38 05:53:55   -12.253778c  -5.69  -4.84c  +1.1,+0.0,-0.0
# iter:  39 05:54:30   -12.253863c  -5.80  -4.94c  +1.1,+0.0,-0.0
# iter:  40 05:55:05   -12.253863c  -5.96  -5.27c  +1.1,+0.0,-0.0
# iter:  41 05:55:39   -12.253872c  -6.10  -5.34c  +1.1,+0.0,-0.0
# iter:  42 05:56:14   -12.253881c  -6.24  -5.46c  +1.1,+0.0,-0.0
# iter:  43 05:56:48   -12.253884c  -6.38  -5.47c  +1.1,+0.0,-0.0
# iter:  44 05:57:23   -12.253881c  -6.52  -5.53c  +1.1,+0.0,-0.0
# iter:  45 05:57:57   -12.253870c  -6.67  -5.69c  +1.1,+0.0,-0.0
# iter:  46 05:58:32   -12.253866c  -6.81  -5.77c  +1.1,+0.0,-0.0
# iter:  47 05:59:07   -12.253864c  -6.95  -5.84c  +1.1,+0.0,-0.0
# iter:  48 05:59:41   -12.253865c  -7.09  -5.88c  +1.1,+0.0,-0.0
# iter:  49 06:00:15   -12.253865c  -7.24  -5.98c  +1.1,+0.0,-0.0
# iter:  50 06:00:50   -12.253860c  -7.39  -5.98c  +1.1,+0.0,-0.0
# iter:  51 06:01:25   -12.253857c  -7.53c -6.15c  +1.1,+0.0,-0.0
scf_steps: 51
energies:  # eV
  coulomb:          -8.009450
  zero:              0.066935
  xc:              -14.904527
  external:          0.000000
  kinetic:          10.627541
  spinorbit:         0.000000
  entropy:          -0.068714
  total:           -12.288214
  extrapolated:    -12.253857

dipole moment: [-3.494721, -6.304487, -0.727572]  # |e|*Ang

total magnetic moment: [1.124918, 0.001349, -0.000000]

local magnetic moments: [
  [ 1.109338,  0.000000, -0.000000],  # Ni 0
  [-0.055727,  0.000003, -0.000000],  # I  1
  [ 0.054881, -0.009674, -0.000000]]  # I  2


Fermi level: -1.199 eV

kpt = [-0.455, -0.455, 0.000], weight = 0.008:
  Band      eig [eV]   occ [0-1]
     0       -64.951       1.000
   ...
    22        -3.008       1.000
    23        -2.915       1.000
    24        -2.705       1.000
    25        -2.300       1.000
    26        -2.181       1.000
    27        -2.100       1.000
    28        -1.870       0.999
    29        -1.610       0.984
    30        -1.026       0.151
    31        -0.762       0.013
    32         2.398       0.000
    33         2.539       0.000
    34         4.275       0.000
    35         4.586       0.000
    36         4.960       0.000
    37         5.058       0.000
   ...
    39         5.667       0.000

kpt = [-0.455, -0.364, 0.000], weight = 0.008:
  Band      eig [eV]   occ [0-1]
     0       -64.951       1.000
   ...
    22        -2.939       1.000
    23        -2.899       1.000
    24        -2.722       1.000
    25        -2.409       1.000
    26        -2.133       1.000
    27        -2.106       1.000
    28        -1.765       0.997
    29        -1.543       0.969
    30        -0.980       0.101
    31        -0.726       0.009
    32         2.155       0.000
    33         2.518       0.000
    34         4.003       0.000
    35         4.466       0.000
    36         4.488       0.000
    37         4.979       0.000
   ...
    39         5.507       0.000

kpt = [-0.455, -0.273, 0.000], weight = 0.008:
  Band      eig [eV]   occ [0-1]
     0       -64.951       1.000
   ...
    22        -2.949       1.000
    23        -2.824       1.000
    24        -2.641       1.000
    25        -2.467       1.000
    26        -2.118       1.000
    27        -2.047       1.000
    28        -1.803       0.998
    29        -1.443       0.920
    30        -1.068       0.213
    31        -0.639       0.004
    32         2.203       0.000
    33         2.733       0.000
    34         3.785       0.000
    35         4.087       0.000
    36         4.367       0.000
    37         4.775       0.000
   ...
    39         5.822       0.000
(only showing first 3 out of 121 k-points)

No gap
# Writing to gsq-11.gpw (mode='')

