#  __  _  _
# | _ |_)|_||  |
# |__||  | ||/\| - 24.1.0

User:   s194113@n-62-28-31
Date:   Tue Apr 23 04:05:19 2024
Arch:   x86_64
Pid:    26488
CWD:    /zhome/87/8/147075/10302/10302_NM/NiI2/E_con
Python: 3.8.5
gpaw:   /zhome/87/8/147075/venv-name/gpaw/gpaw (10808453a8)
_gpaw:  /zhome/87/8/147075/venv-name/gpaw/
        _gpaw.cpython-38-x86_64-linux-gnu.so (10808453a8)
ase:    /zhome/87/8/147075/venv-name/ase/ase (version 3.23.0b1-c36115a2db)
numpy:  /zhome/87/8/147075/venv-name/lib/python3.8/site-packages/numpy (version 1.24.4)
scipy:  /zhome/87/8/147075/venv-name/lib/python3.8/site-packages/scipy (version 1.10.1)
libxc:  4.3.4
units:  Angstrom and eV
cores: 12
OpenMP: False
OMP_NUM_THREADS: 1

---
input parameters:
  kpts: 
    density: 6.0
    gamma: True
  magmoms: [[1, 0, 0], [0, 0, 0], [0, 0, 0]]
  mixer: 
    backend: 'pulay'
    beta: 0.05
    method: 'sum'
    nmaxold: 5
    weight: 100
  mode: 
    name: 'pw'
    ecut: 1000
    qspiral: array([0.4, 0. , 0. ])
  parallel: 
    kpt: None
    domain: 1
    band: 1
    order: 'kdb'
    stridebands: False
    augment_grids: False
    sl_auto: False
    sl_default: None
    sl_diagonalize: None
    sl_inverse_cholesky: None
    sl_lcao: None
    sl_lrtddft: None
    use_elpa: False
    elpasolver: '2stage'
    buffer_size: None
    gpu: False
  symmetry: 
    point_group: False
    time_reversal: False
  xc: 
    name: 'LDA'

#                        
#                        
#                        
#                        
#                        
#              I         
#                        
#        Ni              
#          I             
#                        
#                        
#                        
#                        
#                        

atoms: [  # symbols, positions [Ang] and initial magnetic moments
  [ Ni, [   0.000000,    0.000000,    7.513573], [ 1.000,  0.000,  0.000]], # 0
  [  I, [   1.985000,    1.146040,    9.027147], [ 0.000,  0.000,  0.000]], # 1
  [  I, [  -0.000000,    2.292081,    6.000000], [ 0.000,  0.000,  0.000]]] # 2

cell: [  # Ang
#     x            y            z
  [   3.970000,    0.000000,    0.000000],
  [  -1.985000,    3.438121,    0.000000],
  [   0.000000,   -0.000000,   15.027147]]

periodic: [True      , True      , False     ]
lengths:  [  3.970000,   3.970000,  15.027147]  # Ang
angles:   [ 90.000000,  90.000000, 120.000000]

symmetry:
  number of symmetries: 1
  rotations: [
    [[ 1,  0,  0], [ 0,  1,  0], [ 0,  0,  1]]]

bz sampling:
  number of bz points: 121
  number of ibz points: 121
  monkhorst-pack size: [11, 11, 1]
  monkhorst-pack shift: [0, 0, 0]
  points and weights: [
    [[ -0.45454545,  -0.45454545,   0.00000000], 0.00826446],  # 0
    [[ -0.45454545,  -0.36363636,   0.00000000], 0.00826446],  # 1
    [[ -0.45454545,  -0.27272727,   0.00000000], 0.00826446],  # 2
    [[ -0.45454545,  -0.18181818,   0.00000000], 0.00826446],  # 3
    [[ -0.45454545,  -0.09090909,   0.00000000], 0.00826446],  # 4
    [[ -0.45454545,   0.00000000,   0.00000000], 0.00826446],  # 5
    [[ -0.45454545,   0.09090909,   0.00000000], 0.00826446],  # 6
    [[ -0.45454545,   0.18181818,   0.00000000], 0.00826446],  # 7
    [[ -0.45454545,   0.27272727,   0.00000000], 0.00826446],  # 8
    [[ -0.45454545,   0.36363636,   0.00000000], 0.00826446],  # 9
    # ...
    [[  0.45454545,   0.45454545,   0.00000000], 0.00826446]]  # 120

plane wave coefficients: 14746
cutoff: 1000.0 eV

spin-components: 4  # (non-collinear spins)
bands: 40
valence electrons: 30.0
spin-degeneracy: 1
dtype: complex128

memory:
    wave functions: 2_283_860_480  # bytes  (190_321_706 per core)

parallelization:
    kpt:    12
    domain: 1
    band:   1

density:
  components: 4
  grid points: [ 30  30 112]
  charge: 0.0  # |e|

potential:
  grid points: [ 30  30 112]

species:
  Ni:
    name: Nickel
    id: 1802175e8de9ea26d9f4394ec1a7d564
    Z: 28.0
    valence: 16
    core: 12
    charge: 0.0
    file: /zhome/86/d/1666/PAW/gpaw-setups-0.9.20000/Ni.LDA.gz
    compensation charges: {type: gauss,
                           rc: 0.36,
                           lmax: 2}
    cutoffs: {filter: 2.14,
              core: 1.98}
    valence states:
      #              energy  rcut
      - 4s(2.00)    -5.858   1.164
      - 3p(6.00)   -71.266   1.207
      - 4p(0.00)    -1.338   1.207
      - 3d(8.00)    -9.141   1.138
      -  s          21.353   1.164
      -  d          18.071   1.138
  
    # Using partial waves for Ni as LCAO basis

  I:
    name: Iodine
    id: b559721c0c096a7b4c8fc0e0f4de5cf4
    Z: 53.0
    valence: 7
    core: 46
    charge: 0.0
    file: /zhome/86/d/1666/PAW/gpaw-setups-0.9.20000/I.LDA.gz
    compensation charges: {type: gauss,
                           rc: 0.37,
                           lmax: 2}
    cutoffs: {filter: 2.06,
              core: 2.90}
    valence states:
      #              energy  rcut
      - 5s(2.00)   -17.626   1.164
      - 5p(5.00)    -7.241   1.164
      -  s           9.585   1.164
      -  p          19.970   1.164
      -  d           0.000   1.164
  
    # Using partial waves for I as LCAO basis

Reference energy: -428067.566327  # eV

eigensolver:
  name: 'Davidson'
  niter: 2
  converge_bands: 'occupied'
Density mixing:
  Method: sum
  Backend: pulay
  Linear mixing parameter: 0.05
  old densities: 5
  Damping of long wavelength oscillations: 100
occupation numbers:
  Fermi-Dirac:
    width: 0.1000  # eV
  

poisson solver:
  ecut: 8000.0  # eV

xc functional:
  name: None

convergence criteria:
- Maximum [total energy] change in last 3 cyles: 0.0005 eV / valence electron
- Maximum integral of absolute [dens]ity change: 0.0001 electrons / valence electron
- Maximum integral of absolute [eigenst]ate change: 4e-08 eV^2 / valence electron
maximum number of iterations: 333

#      iter     time        total  log10-change:
#                          energy   eigst   dens
# iter:   1 04:06:12   -13.371983                  +1.0,+0.0,+0.0
# iter:   2 04:06:47   -12.574706   +0.16  -1.31   +0.8,+0.0,-0.0
# iter:   3 04:07:22   -12.186521   -0.40  -1.45   +0.8,+0.0,+0.0
# iter:   4 04:07:56   -12.249946   -1.00  -1.68   +1.0,+0.0,+0.0
# iter:   5 04:08:31   -12.577688   -1.15  -1.66   +1.0,+0.0,+0.0
# iter:   6 04:09:06   -12.255181   -1.36  -1.68   +1.0,+0.0,+0.0
# iter:   7 04:09:40   -12.250736   -1.66  -2.18   +1.0,+0.0,-0.0
# iter:   8 04:10:15   -12.253714c  -1.87  -2.35   +1.1,+0.0,-0.0
# iter:   9 04:10:50   -12.254796c  -2.02  -2.56   +1.1,+0.0,+0.0
# iter:  10 04:11:25   -12.254723c  -2.21  -3.01   +1.1,+0.0,+0.0
# iter:  11 04:11:59   -12.262093c  -2.35  -2.90   +1.2,+0.0,+0.0
# iter:  12 04:12:34   -12.264138c  -2.50  -3.39   +1.2,+0.0,-0.0
# iter:  13 04:13:09   -12.264289c  -2.64  -3.54   +1.2,+0.0,-0.0
# iter:  14 04:13:43   -12.264342c  -2.78  -3.61   +1.2,+0.0,-0.0
# iter:  15 04:14:18   -12.264499c  -2.91  -3.61   +1.2,+0.0,-0.0
# iter:  16 04:14:53   -12.264521c  -3.05  -3.59   +1.2,+0.0,-0.0
# iter:  17 04:15:27   -12.264700c  -3.18  -3.59   +1.2,+0.0,-0.0
# iter:  18 04:16:02   -12.264676c  -3.32  -3.59   +1.2,+0.0,-0.0
# iter:  19 04:16:37   -12.264658c  -3.45  -3.60   +1.2,+0.0,+0.0
# iter:  20 04:17:12   -12.264117c  -3.58  -3.59   +1.2,+0.0,+0.0
# iter:  21 04:17:46   -12.264566c  -3.72  -3.59   +1.2,+0.0,+0.0
# iter:  22 04:18:21   -12.265708c  -3.83  -3.57   +1.2,+0.0,-0.0
# iter:  23 04:18:56   -12.265936c  -3.97  -3.69   +1.2,+0.0,-0.0
# iter:  24 04:19:31   -12.265331c  -4.11  -3.63   +1.2,+0.0,-0.0
# iter:  25 04:20:05   -12.265523c  -4.25  -3.72   +1.2,+0.0,-0.0
# iter:  26 04:20:40   -12.267100c  -4.31  -3.73   +1.3,+0.0,-0.0
# iter:  27 04:21:14   -12.267503c  -4.46  -3.77   +1.3,+0.0,-0.0
# iter:  28 04:21:49   -12.267908c  -4.58  -3.75   +1.3,+0.0,-0.0
# iter:  29 04:22:24   -12.268160c  -4.71  -3.93   +1.3,+0.0,-0.0
# iter:  30 04:22:59   -12.268252c  -4.88  -4.16c  +1.3,+0.0,-0.0
# iter:  31 04:23:33   -12.268602c  -4.98  -4.25c  +1.3,+0.0,-0.0
# iter:  32 04:24:08   -12.268606c  -5.14  -4.44c  +1.3,+0.0,-0.0
# iter:  33 04:24:43   -12.268542c  -5.29  -4.61c  +1.3,+0.0,-0.0
# iter:  34 04:25:17   -12.268481c  -5.43  -4.69c  +1.3,+0.0,-0.0
# iter:  35 04:25:52   -12.268465c  -5.57  -4.76c  +1.3,+0.0,-0.0
# iter:  36 04:26:26   -12.268426c  -5.71  -4.87c  +1.3,+0.0,-0.0
# iter:  37 04:27:01   -12.268426c  -5.84  -5.02c  +1.3,+0.0,-0.0
# iter:  38 04:27:35   -12.268463c  -5.98  -5.01c  +1.3,+0.0,-0.0
# iter:  39 04:28:10   -12.268511c  -6.10  -5.06c  +1.3,+0.0,-0.0
# iter:  40 04:28:44   -12.268513c  -6.25  -5.09c  +1.3,+0.0,-0.0
# iter:  41 04:29:18   -12.268500c  -6.40  -5.16c  +1.3,+0.0,-0.0
# iter:  42 04:29:52   -12.268485c  -6.54  -5.20c  +1.3,+0.0,-0.0
# iter:  43 04:30:27   -12.268472c  -6.69  -5.22c  +1.3,+0.0,-0.0
# iter:  44 04:31:01   -12.268467c  -6.84  -5.38c  +1.3,+0.0,-0.0
# iter:  45 04:31:36   -12.268466c  -6.99  -5.63c  +1.3,+0.0,-0.0
# iter:  46 04:32:10   -12.268465c  -7.14  -5.67c  +1.3,+0.0,-0.0
# iter:  47 04:32:44   -12.268464c  -7.29  -5.67c  +1.3,+0.0,-0.0
# iter:  48 04:33:18   -12.268464c  -7.44c -5.82c  +1.3,+0.0,-0.0
scf_steps: 48
energies:  # eV
  coulomb:          -7.916102
  zero:              0.067005
  xc:              -14.901145
  external:          0.000000
  kinetic:          10.512226
  spinorbit:         0.000000
  entropy:          -0.060895
  total:           -12.298911
  extrapolated:    -12.268464

dipole moment: [-3.719747, -6.555297, -2.052506]  # |e|*Ang

total magnetic moment: [1.283023, 0.013678, -0.000000]

local magnetic moments: [
  [ 1.113864, -0.000000, -0.000000],  # Ni 0
  [-0.035748, -0.067520, -0.000000],  # I  1
  [ 0.068608, -0.033613, -0.000000]]  # I  2


Fermi level: -1.192 eV

kpt = [-0.455, -0.455, 0.000], weight = 0.008:
  Band      eig [eV]   occ [0-1]
     0       -64.952       1.000
   ...
    22        -3.000       1.000
    23        -2.952       1.000
    24        -2.717       1.000
    25        -2.294       1.000
    26        -2.180       1.000
    27        -2.092       1.000
    28        -1.847       0.999
    29        -1.584       0.981
    30        -0.963       0.092
    31        -0.732       0.010
    32         2.085       0.000
    33         2.626       0.000
    34         4.160       0.000
    35         4.334       0.000
    36         4.596       0.000
    37         4.998       0.000
   ...
    39         5.773       0.000

kpt = [-0.455, -0.364, 0.000], weight = 0.008:
  Band      eig [eV]   occ [0-1]
     0       -64.952       1.000
   ...
    22        -2.993       1.000
    23        -2.884       1.000
    24        -2.763       1.000
    25        -2.393       1.000
    26        -2.119       1.000
    27        -2.115       1.000
    28        -1.766       0.997
    29        -1.560       0.975
    30        -0.944       0.077
    31        -0.689       0.006
    32         1.928       0.000
    33         2.552       0.000
    34         3.775       0.000
    35         4.369       0.000
    36         4.736       0.000
    37         4.956       0.000
   ...
    39         5.585       0.000

kpt = [-0.455, -0.273, 0.000], weight = 0.008:
  Band      eig [eV]   occ [0-1]
     0       -64.952       1.000
   ...
    22        -2.943       1.000
    23        -2.838       1.000
    24        -2.692       1.000
    25        -2.399       1.000
    26        -2.117       1.000
    27        -2.056       1.000
    28        -1.819       0.998
    29        -1.534       0.968
    30        -1.035       0.172
    31        -0.709       0.008
    32         2.345       0.000
    33         2.657       0.000
    34         3.943       0.000
    35         4.256       0.000
    36         4.410       0.000
    37         4.880       0.000
   ...
    39         5.557       0.000
(only showing first 3 out of 121 k-points)

No gap
# Writing to gsq-08.gpw (mode='')

---

timing:  # [seconds]
  Total: 1678.952  # ━━━━━━━━━━━━━━━━━━━━━━━━━━━━━━━━━━━━━━━━━━━━━━━━━━━━━━━━
  Init:    20.652  # ╸
  SCF:   1657.962  # ━━━━━━━━━━━━━━━━━━━━━━━━━━━━━━━━━━━━━━━━━━━━━━━━━━━━━━━╸

Max RSS: 1160.781  # MiB
