#  __  _  _
# | _ |_)|_||  |
# |__||  | ||/\| - 24.1.0

User:   s194113@n-62-29-25
Date:   Thu May  2 13:17:15 2024
Arch:   x86_64
Pid:    9729
CWD:    /work3/s194113/10302/10302_NM/MnI2
Python: 3.8.5
gpaw:   /zhome/87/8/147075/venv-name/gpaw/gpaw (10808453a8)
_gpaw:  /zhome/87/8/147075/venv-name/gpaw/
        _gpaw.cpython-38-x86_64-linux-gnu.so (10808453a8)
ase:    /zhome/87/8/147075/venv-name/ase/ase (version 3.23.0b1-c36115a2db)
numpy:  /zhome/87/8/147075/venv-name/lib/python3.8/site-packages/numpy (version 1.24.4)
scipy:  /zhome/87/8/147075/venv-name/lib/python3.8/site-packages/scipy (version 1.10.1)
libxc:  4.3.4
units:  Angstrom and eV
cores: 12
OpenMP: False
OMP_NUM_THREADS: 1

---
input parameters:
  kpts: 
    density: 8.0
    gamma: True
  magmoms: [[4.4079912, 0, 0], [0.08032672, 0, 0], [0.08032672, 0, 0]]
  mixer: 
    backend: 'pulay'
    beta: 0.05
    method: 'sum'
    nmaxold: 5
    weight: 100
  mode: 
    name: 'pw'
    ecut: 800.0
    qspiral: array([0.41269841, 0.17460317, 0.        ])
  parallel: 
    kpt: None
    domain: 1
    band: 1
    order: 'kdb'
    stridebands: False
    augment_grids: False
    sl_auto: False
    sl_default: None
    sl_diagonalize: None
    sl_inverse_cholesky: None
    sl_lcao: None
    sl_lrtddft: None
    use_elpa: False
    elpasolver: '2stage'
    buffer_size: None
    gpu: False
  symmetry: 
    point_group: False
    time_reversal: False
  xc: 
    name: 'LDA'

#                        
#                        
#                        
#                        
#              I         
#                        
#                        
#        Mn              
#          I             
#                        
#                        
#                        
#                        
#                        

atoms: [  # symbols, positions [Ang] and initial magnetic moments
  [ Mn, [   0.000000,    0.000000,    7.649535], [ 4.408,  0.000,  0.000]], # 0
  [  I, [   2.082858,    1.202539,    9.299069], [ 0.080,  0.000,  0.000]], # 1
  [  I, [   0.000000,    2.405077,    6.000000], [ 0.080,  0.000,  0.000]]] # 2

cell: [  # Ang
#     x            y            z
  [   4.165716,    0.000000,    0.000000],
  [  -2.082858,    3.607616,    0.000000],
  [   0.000000,    0.000000,   15.299069]]

periodic: [True      , True      , False     ]
lengths:  [  4.165716,   4.165716,  15.299069]  # Ang
angles:   [ 90.000000,  90.000000, 120.000000]

symmetry:
  number of symmetries: 1
  rotations: [
    [[ 1,  0,  0], [ 0,  1,  0], [ 0,  0,  1]]]

bz sampling:
  number of bz points: 196
  number of ibz points: 196
  monkhorst-pack size: [14, 14, 1]
  monkhorst-pack shift: [0.03571428571428571, 0.03571428571428571, 0.0]
  points and weights: [
    [[ -0.42857143,  -0.42857143,   0.00000000], 0.00510204],  # 0
    [[ -0.42857143,  -0.35714286,   0.00000000], 0.00510204],  # 1
    [[ -0.42857143,  -0.28571429,   0.00000000], 0.00510204],  # 2
    [[ -0.42857143,  -0.21428571,   0.00000000], 0.00510204],  # 3
    [[ -0.42857143,  -0.14285714,   0.00000000], 0.00510204],  # 4
    [[ -0.42857143,  -0.07142857,   0.00000000], 0.00510204],  # 5
    [[ -0.42857143,   0.00000000,   0.00000000], 0.00510204],  # 6
    [[ -0.42857143,   0.07142857,   0.00000000], 0.00510204],  # 7
    [[ -0.42857143,   0.14285714,   0.00000000], 0.00510204],  # 8
    [[ -0.42857143,   0.21428571,   0.00000000], 0.00510204],  # 9
    # ...
    [[  0.50000000,   0.50000000,   0.00000000], 0.00510204]]  # 195

plane wave coefficients: 11927
cutoff: 800.0 eV

spin-components: 4  # (non-collinear spins)
bands: 42
valence electrons: 29.0
spin-degeneracy: 1
dtype: complex128

memory:
    wave functions: 3_105_768_960  # bytes  (258_814_080 per core)

parallelization:
    kpt:    12
    domain: 1
    band:   1

density:
  components: 4
  grid points: [ 28  28 100]
  charge: 0.0  # |e|

potential:
  grid points: [ 28  28 100]

species:
  Mn:
    name: Manganese
    id: 0d715a8018be061a6e9ea6f2d364ac92
    Z: 25.0
    valence: 15
    core: 10
    charge: 0.0
    file: /zhome/86/d/1666/PAW/gpaw-setups-0.9.20000/Mn.LDA.gz
    compensation charges: {type: gauss,
                           rc: 0.38,
                           lmax: 2}
    cutoffs: {filter: 2.14,
              core: 0.86}
    valence states:
      #              energy  rcut
      - 3s(2.00)   -85.387   1.275
      - 4s(2.00)    -5.282   1.275
      - 3p(6.00)   -54.493   1.281
      - 4p(0.00)    -1.471   1.281
      - 3d(5.00)    -7.009   1.138
      -  d          20.203   1.138
  
    # Using partial waves for Mn as LCAO basis

  I:
    name: Iodine
    id: b559721c0c096a7b4c8fc0e0f4de5cf4
    Z: 53.0
    valence: 7
    core: 46
    charge: 0.0
    file: /zhome/86/d/1666/PAW/gpaw-setups-0.9.20000/I.LDA.gz
    compensation charges: {type: gauss,
                           rc: 0.37,
                           lmax: 2}
    cutoffs: {filter: 2.06,
              core: 2.90}
    valence states:
      #              energy  rcut
      - 5s(2.00)   -17.626   1.164
      - 5p(5.00)    -7.241   1.164
      -  s           9.585   1.164
      -  p          19.970   1.164
      -  d           0.000   1.164
  
    # Using partial waves for I as LCAO basis

Reference energy: -418222.442431  # eV

eigensolver:
  name: 'Davidson'
  niter: 2
  converge_bands: 'occupied'
Density mixing:
  Method: sum
  Backend: pulay
  Linear mixing parameter: 0.05
  old densities: 5
  Damping of long wavelength oscillations: 100
occupation numbers:
  Fermi-Dirac:
    width: 0.1000  # eV
  

poisson solver:
  ecut: 6400.0  # eV

xc functional:
  name: None

convergence criteria:
- Maximum [total energy] change in last 3 cyles: 0.0005 eV / valence electron
- Maximum integral of absolute [dens]ity change: 0.0001 electrons / valence electron
- Maximum integral of absolute [eigenst]ate change: 4e-08 eV^2 / valence electron
maximum number of iterations: 333

#      iter     time        total  log10-change:
#                          energy   eigst   dens
# iter:   1 13:18:24   -14.734389                  +4.6,+0.0,+0.0
# iter:   2 13:19:08   -15.148814   -0.12  -1.49   +4.1,-0.0,-0.0
# iter:   3 13:19:52   -15.138714   -0.74  -1.52   +4.1,-0.0,-0.0
# iter:   4 13:20:37   -15.156411   -1.04  -1.56   +4.2,-0.0,-0.0
# iter:   5 13:21:21   -15.248652   -1.34  -1.76   +4.4,-0.0,+0.0
# iter:   6 13:22:06   -15.159156   -1.62  -2.15   +4.4,+0.0,-0.0
# iter:   7 13:22:50   -15.155401   -1.64  -2.30   +4.4,+0.0,+0.0
# iter:   8 13:23:35   -15.140638   -2.14  -2.18   +4.3,+0.0,+0.0
# iter:   9 13:24:19   -15.140883   -2.42  -2.93   +4.3,+0.0,-0.0
# iter:  10 13:25:04   -15.142103c  -2.62  -3.05   +4.3,+0.0,+0.0
# iter:  11 13:25:48   -15.140879c  -2.80  -2.94   +4.3,+0.0,+0.0
# iter:  12 13:26:33   -15.140974c  -3.02  -3.40   +4.3,+0.0,+0.0
# iter:  13 13:27:17   -15.141011c  -3.22  -3.49   +4.4,+0.0,+0.0
# iter:  14 13:28:01   -15.141137c  -3.38  -3.53   +4.4,+0.0,+0.0
# iter:  15 13:28:46   -15.141065c  -3.57  -3.54   +4.4,+0.0,+0.0
# iter:  16 13:29:30   -15.141069c  -3.74  -3.63   +4.4,+0.0,-0.0
# iter:  17 13:30:14   -15.141084c  -3.91  -3.71   +4.4,+0.0,-0.0
# iter:  18 13:30:59   -15.141077c  -4.08  -4.03c  +4.4,+0.0,-0.0
# iter:  19 13:31:43   -15.141075c  -4.24  -4.05c  +4.4,+0.0,-0.0
# iter:  20 13:32:27   -15.141088c  -4.38  -4.08c  +4.4,+0.0,-0.0
# iter:  21 13:33:12   -15.141079c  -4.55  -4.11c  +4.4,+0.0,+0.0
# iter:  22 13:33:56   -15.141079c  -4.70  -4.47c  +4.4,+0.0,+0.0
# iter:  23 13:34:41   -15.141081c  -4.85  -4.48c  +4.4,+0.0,+0.0
# iter:  24 13:35:25   -15.141077c  -4.99  -4.54c  +4.4,+0.0,+0.0
# iter:  25 13:36:09   -15.141078c  -5.14  -4.78c  +4.4,+0.0,+0.0
# iter:  26 13:36:54   -15.141077c  -5.28  -5.05c  +4.4,+0.0,+0.0
# iter:  27 13:37:38   -15.141078c  -5.41  -5.05c  +4.4,+0.0,+0.0
# iter:  28 13:38:22   -15.141078c  -5.55  -5.11c  +4.4,+0.0,+0.0
# iter:  29 13:39:07   -15.141078c  -5.68  -5.17c  +4.4,+0.0,+0.0
# iter:  30 13:39:51   -15.141078c  -5.81  -5.26c  +4.4,+0.0,+0.0
# iter:  31 13:40:35   -15.141078c  -5.94  -5.37c  +4.4,+0.0,+0.0
# iter:  32 13:41:19   -15.141078c  -6.07  -5.38c  +4.4,+0.0,+0.0
# iter:  33 13:42:04   -15.141078c  -6.20  -5.42c  +4.4,+0.0,+0.0
# iter:  34 13:42:48   -15.141078c  -6.33  -5.61c  +4.4,+0.0,+0.0
# iter:  35 13:43:32   -15.141078c  -6.46  -5.75c  +4.4,+0.0,+0.0
# iter:  36 13:44:16   -15.141078c  -6.59  -5.74c  +4.4,+0.0,+0.0
# iter:  37 13:45:00   -15.141078c  -6.72  -5.74c  +4.4,+0.0,+0.0
# iter:  38 13:45:45   -15.141078c  -6.84  -5.78c  +4.4,+0.0,+0.0
# iter:  39 13:46:29   -15.141078c  -6.96  -6.00c  +4.4,+0.0,+0.0
# iter:  40 13:47:13   -15.141078c  -7.07  -6.03c  +4.4,+0.0,+0.0
# iter:  41 13:47:57   -15.141078c  -7.19  -6.09c  +4.4,+0.0,+0.0
# iter:  42 13:48:41   -15.141078c  -7.31  -6.37c  +4.4,+0.0,-0.0
# iter:  43 13:49:25   -15.141078c  -7.43c -6.56c  +4.4,+0.0,-0.0
scf_steps: 43
energies:  # eV
  coulomb:         -12.482938
  zero:              0.094342
  xc:              -17.144181
  external:          0.000000
  kinetic:          14.392224
  spinorbit:         0.000000
  entropy:          -0.001053
  total:           -15.141605
  extrapolated:    -15.141078

dipole moment: [-4.731758, -8.629260, -9.467362]  # |e|*Ang

total magnetic moment: [4.358956, 0.001346, -0.000000]

local magnetic moments: [
  [ 4.324978, -0.000029, -0.000000],  # Mn 0
  [-0.016504,  0.000000,  0.000000],  # I  1
  [ 0.014082, -0.008605,  0.000000]]  # I  2


Fermi level: -1.213 eV

kpt = [-0.429, -0.429, 0.000], weight = 0.005:
  Band      eig [eV]   occ [0-1]
     0       -82.171       1.000
   ...
    21        -4.145       1.000
    22        -3.977       1.000
    23        -3.789       1.000
    24        -3.696       1.000
    25        -3.506       1.000
    26        -3.465       1.000
    27        -2.253       1.000
    28        -2.106       1.000
    29        -0.325       0.000
    30        -0.260       0.000
    31        -0.146       0.000
    32         0.426       0.000
    33         0.529       0.000
    34         1.655       0.000
    35         2.391       0.000
    36         3.615       0.000
   ...
    41         4.787       0.000

kpt = [-0.429, -0.357, 0.000], weight = 0.005:
  Band      eig [eV]   occ [0-1]
     0       -82.171       1.000
   ...
    21        -4.018       1.000
    22        -3.832       1.000
    23        -3.759       1.000
    24        -3.643       1.000
    25        -3.474       1.000
    26        -3.353       1.000
    27        -2.315       1.000
    28        -1.990       1.000
    29        -0.389       0.000
    30        -0.246       0.000
    31        -0.160       0.000
    32         0.404       0.000
    33         0.556       0.000
    34         1.567       0.000
    35         2.399       0.000
    36         3.220       0.000
   ...
    41         5.136       0.000

kpt = [-0.429, -0.286, 0.000], weight = 0.005:
  Band      eig [eV]   occ [0-1]
     0       -82.171       1.000
   ...
    21        -3.949       1.000
    22        -3.661       1.000
    23        -3.628       1.000
    24        -3.569       1.000
    25        -3.442       1.000
    26        -3.244       1.000
    27        -2.335       1.000
    28        -1.927       0.999
    29        -0.440       0.000
    30        -0.217       0.000
    31        -0.193       0.000
    32         0.370       0.000
    33         0.555       0.000
    34         1.572       0.000
    35         2.470       0.000
    36         3.066       0.000
   ...
    41         4.923       0.000
(only showing first 3 out of 196 k-points)

Gap: 1.319 eV
Transition (v -> c):
  (s=0, k=133, n=28, [0.21, 0.07, 0.00]) -> (s=0, k=35, n=29, [-0.29, 0.07, 0.00])
# Writing to Band_Conv/gsq-47.gpw (mode='')

---

timing:  # [seconds]
  Total: 3884.116  # ━━━━━━━━━━━━━━━━━━━━━━━━━━━━━━━━━━━━━━━━━━━━━━━━━━━━━━━━
  Init:    27.385  # ╸
  SCF:   1903.187  # ━━━━━━━━━━━━━━━━━━━━━━━━━━━╸

Max RSS: 2986.672  # MiB
