#  __  _  _
# | _ |_)|_||  |
# |__||  | ||/\| - 24.1.0

User:   s194113@n-62-29-34
Date:   Mon May  6 09:48:50 2024
Arch:   x86_64
Pid:    15878
CWD:    /work3/s194113/10302/10302_NM/MnI2
Python: 3.8.5
gpaw:   /zhome/87/8/147075/venv-name/gpaw/gpaw (10808453a8)
_gpaw:  /zhome/87/8/147075/venv-name/gpaw/
        _gpaw.cpython-38-x86_64-linux-gnu.so (10808453a8)
ase:    /zhome/87/8/147075/venv-name/ase/ase (version 3.23.0b1-c36115a2db)
numpy:  /zhome/87/8/147075/venv-name/lib/python3.8/site-packages/numpy (version 1.24.4)
scipy:  /zhome/87/8/147075/venv-name/lib/python3.8/site-packages/scipy (version 1.10.1)
libxc:  4.3.4
units:  Angstrom and eV
cores: 18
OpenMP: False
OMP_NUM_THREADS: 1

---
input parameters:
  kpts: 
    density: 8.0
    gamma: True
  magmoms: [[4.4079912, 0, 0], [0.08032672, 0, 0], [0.08032672, 0, 0]]
  mixer: 
    backend: 'pulay'
    beta: 0.05
    method: 'sum'
    nmaxold: 5
    weight: 100
  mode: 
    name: 'pw'
    ecut: 800.0
    qspiral: array([0.43055556, 0.        , 0.        ])
  parallel: 
    kpt: None
    domain: 1
    band: 1
    order: 'kdb'
    stridebands: False
    augment_grids: False
    sl_auto: False
    sl_default: None
    sl_diagonalize: None
    sl_inverse_cholesky: None
    sl_lcao: None
    sl_lrtddft: None
    use_elpa: False
    elpasolver: '2stage'
    buffer_size: None
    gpu: False
  symmetry: 
    point_group: False
    time_reversal: False
  xc: 
    name: 'LDA'

#                        
#                        
#                        
#                        
#              I         
#                        
#                        
#        Mn              
#          I             
#                        
#                        
#                        
#                        
#                        

atoms: [  # symbols, positions [Ang] and initial magnetic moments
  [ Mn, [   0.000000,    0.000000,    7.649535], [ 4.408,  0.000,  0.000]], # 0
  [  I, [   2.082858,    1.202539,    9.299069], [ 0.080,  0.000,  0.000]], # 1
  [  I, [   0.000000,    2.405077,    6.000000], [ 0.080,  0.000,  0.000]]] # 2

cell: [  # Ang
#     x            y            z
  [   4.165716,    0.000000,    0.000000],
  [  -2.082858,    3.607616,    0.000000],
  [   0.000000,    0.000000,   15.299069]]

periodic: [True      , True      , False     ]
lengths:  [  4.165716,   4.165716,  15.299069]  # Ang
angles:   [ 90.000000,  90.000000, 120.000000]

symmetry:
  number of symmetries: 1
  rotations: [
    [[ 1,  0,  0], [ 0,  1,  0], [ 0,  0,  1]]]

bz sampling:
  number of bz points: 196
  number of ibz points: 196
  monkhorst-pack size: [14, 14, 1]
  monkhorst-pack shift: [0.03571428571428571, 0.03571428571428571, 0.0]
  points and weights: [
    [[ -0.42857143,  -0.42857143,   0.00000000], 0.00510204],  # 0
    [[ -0.42857143,  -0.35714286,   0.00000000], 0.00510204],  # 1
    [[ -0.42857143,  -0.28571429,   0.00000000], 0.00510204],  # 2
    [[ -0.42857143,  -0.21428571,   0.00000000], 0.00510204],  # 3
    [[ -0.42857143,  -0.14285714,   0.00000000], 0.00510204],  # 4
    [[ -0.42857143,  -0.07142857,   0.00000000], 0.00510204],  # 5
    [[ -0.42857143,   0.00000000,   0.00000000], 0.00510204],  # 6
    [[ -0.42857143,   0.07142857,   0.00000000], 0.00510204],  # 7
    [[ -0.42857143,   0.14285714,   0.00000000], 0.00510204],  # 8
    [[ -0.42857143,   0.21428571,   0.00000000], 0.00510204],  # 9
    # ...
    [[  0.50000000,   0.50000000,   0.00000000], 0.00510204]]  # 195

plane wave coefficients: 11927
cutoff: 800.0 eV

spin-components: 4  # (non-collinear spins)
bands: 42
valence electrons: 29.0
spin-degeneracy: 1
dtype: complex128

memory:
    wave functions: 3_105_768_960  # bytes  (172_542_720 per core)

parallelization:
    kpt:    18
    domain: 1
    band:   1

density:
  components: 4
  grid points: [ 28  28 100]
  charge: 0.0  # |e|

potential:
  grid points: [ 28  28 100]

species:
  Mn:
    name: Manganese
    id: 0d715a8018be061a6e9ea6f2d364ac92
    Z: 25.0
    valence: 15
    core: 10
    charge: 0.0
    file: /zhome/86/d/1666/PAW/gpaw-setups-0.9.20000/Mn.LDA.gz
    compensation charges: {type: gauss,
                           rc: 0.38,
                           lmax: 2}
    cutoffs: {filter: 2.14,
              core: 0.86}
    valence states:
      #              energy  rcut
      - 3s(2.00)   -85.387   1.275
      - 4s(2.00)    -5.282   1.275
      - 3p(6.00)   -54.493   1.281
      - 4p(0.00)    -1.471   1.281
      - 3d(5.00)    -7.009   1.138
      -  d          20.203   1.138
  
    # Using partial waves for Mn as LCAO basis

  I:
    name: Iodine
    id: b559721c0c096a7b4c8fc0e0f4de5cf4
    Z: 53.0
    valence: 7
    core: 46
    charge: 0.0
    file: /zhome/86/d/1666/PAW/gpaw-setups-0.9.20000/I.LDA.gz
    compensation charges: {type: gauss,
                           rc: 0.37,
                           lmax: 2}
    cutoffs: {filter: 2.06,
              core: 2.90}
    valence states:
      #              energy  rcut
      - 5s(2.00)   -17.626   1.164
      - 5p(5.00)    -7.241   1.164
      -  s           9.585   1.164
      -  p          19.970   1.164
      -  d           0.000   1.164
  
    # Using partial waves for I as LCAO basis

Reference energy: -418222.442431  # eV

eigensolver:
  name: 'Davidson'
  niter: 2
  converge_bands: 'occupied'
Density mixing:
  Method: sum
  Backend: pulay
  Linear mixing parameter: 0.05
  old densities: 5
  Damping of long wavelength oscillations: 100
occupation numbers:
  Fermi-Dirac:
    width: 0.1000  # eV
  

poisson solver:
  ecut: 6400.0  # eV

xc functional:
  name: None

convergence criteria:
- Maximum [total energy] change in last 3 cyles: 0.0005 eV / valence electron
- Maximum integral of absolute [dens]ity change: 0.0001 electrons / valence electron
- Maximum integral of absolute [eigenst]ate change: 4e-08 eV^2 / valence electron
maximum number of iterations: 333

#      iter     time        total  log10-change:
#                          energy   eigst   dens
# iter:   1 09:49:36   -14.916194                  +4.6,+0.0,+0.0
# iter:   2 09:50:06   -15.168571   -0.26  -1.49   +4.2,-0.0,+0.0
# iter:   3 09:50:35   -15.139788   -0.86  -1.52   +4.2,-0.0,+0.0
# iter:   4 09:51:04   -15.151319   -1.13  -1.56   +4.3,-0.0,+0.0
# iter:   5 09:51:33   -15.230781   -1.43  -1.76   +4.5,+0.0,+0.0
# iter:   6 09:52:02   -15.160908   -1.73  -2.18   +4.5,+0.0,+0.0
# iter:   7 09:52:31   -15.164219   -1.60  -2.28   +4.5,+0.0,+0.0
# iter:   8 09:53:00   -15.139550   -2.23  -2.16   +4.5,+0.0,+0.0
# iter:   9 09:53:30   -15.138504   -2.48  -2.85   +4.5,+0.0,+0.0
# iter:  10 09:53:59   -15.140210c  -2.72  -2.96   +4.5,+0.0,-0.0
# iter:  11 09:54:28   -15.138550c  -2.91  -2.92   +4.5,+0.0,+0.0
# iter:  12 09:54:57   -15.138660c  -3.18  -3.50   +4.5,+0.0,+0.0
# iter:  13 09:55:27   -15.138700c  -3.36  -3.52   +4.5,+0.0,-0.0
# iter:  14 09:55:56   -15.138680c  -3.56  -3.54   +4.5,+0.0,-0.0
# iter:  15 09:56:25   -15.138672c  -3.72  -3.60   +4.5,+0.0,-0.0
# iter:  16 09:56:54   -15.138833c  -3.84  -3.68   +4.5,+0.0,-0.0
# iter:  17 09:57:24   -15.138774c  -4.06  -3.50   +4.5,+0.0,-0.0
# iter:  18 09:57:53   -15.138738c  -4.22  -3.59   +4.5,+0.0,+0.0
# iter:  19 09:58:22   -15.138701c  -4.33  -3.66   +4.5,+0.0,+0.0
# iter:  20 09:58:52   -15.138712c  -4.53  -3.85   +4.5,+0.0,-0.0
# iter:  21 09:59:21   -15.138708c  -4.66  -3.87   +4.5,+0.0,+0.0
# iter:  22 09:59:50   -15.138710c  -4.79  -3.92   +4.5,+0.0,+0.0
# iter:  23 10:00:20   -15.138709c  -4.94  -4.11c  +4.5,+0.0,+0.0
# iter:  24 10:00:50   -15.138708c  -5.07  -4.14c  +4.5,+0.0,-0.0
# iter:  25 10:01:19   -15.138708c  -5.25  -4.85c  +4.5,+0.0,+0.0
# iter:  26 10:01:48   -15.138707c  -5.39  -4.95c  +4.5,+0.0,-0.0
# iter:  27 10:02:18   -15.138708c  -5.53  -4.96c  +4.5,+0.0,+0.0
# iter:  28 10:02:48   -15.138708c  -5.66  -5.19c  +4.5,+0.0,+0.0
# iter:  29 10:03:17   -15.138708c  -5.79  -5.23c  +4.5,+0.0,+0.0
# iter:  30 10:03:47   -15.138709c  -5.93  -5.27c  +4.5,+0.0,-0.0
# iter:  31 10:04:16   -15.138708c  -6.07  -5.21c  +4.5,+0.0,-0.0
# iter:  32 10:04:46   -15.138708c  -6.20  -5.25c  +4.5,+0.0,-0.0
# iter:  33 10:05:15   -15.138709c  -6.33  -5.41c  +4.5,+0.0,-0.0
# iter:  34 10:05:45   -15.138709c  -6.46  -6.15c  +4.5,+0.0,-0.0
# iter:  35 10:06:14   -15.138709c  -6.59  -5.95c  +4.5,+0.0,-0.0
# iter:  36 10:06:43   -15.138709c  -6.71  -6.03c  +4.5,+0.0,-0.0
# iter:  37 10:07:13   -15.138709c  -6.84  -6.12c  +4.5,+0.0,-0.0
# iter:  38 10:07:42   -15.138709c  -6.96  -6.19c  +4.5,+0.0,-0.0
# iter:  39 10:08:11   -15.138709c  -7.09  -6.01c  +4.5,+0.0,-0.0
# iter:  40 10:08:41   -15.138709c  -7.22  -6.15c  +4.5,+0.0,-0.0
# iter:  41 10:09:10   -15.138709c  -7.36  -6.26c  +4.5,+0.0,-0.0
# iter:  42 10:09:39   -15.138709c  -7.51c -6.42c  +4.5,+0.0,-0.0
scf_steps: 42
energies:  # eV
  coulomb:         -12.539877
  zero:              0.094211
  xc:              -17.155269
  external:          0.000000
  kinetic:          14.462870
  spinorbit:         0.000000
  entropy:          -0.001286
  total:           -15.139352
  extrapolated:    -15.138709

dipole moment: [-4.857257, -9.048098, -10.457379]  # |e|*Ang

total magnetic moment: [4.491085, 0.004668, -0.000000]

local magnetic moments: [
  [ 4.329223, -0.000135, -0.000000],  # Mn 0
  [-0.019590, -0.020280, -0.000000],  # I  1
  [ 0.026325, -0.010103, -0.000000]]  # I  2


Fermi level: -1.215 eV

kpt = [-0.429, -0.429, 0.000], weight = 0.005:
  Band      eig [eV]   occ [0-1]
     0       -82.176       1.000
   ...
    21        -4.024       1.000
    22        -3.878       1.000
    23        -3.802       1.000
    24        -3.738       1.000
    25        -3.447       1.000
    26        -3.376       1.000
    27        -2.230       1.000
    28        -2.036       1.000
    29        -0.424       0.000
    30        -0.252       0.000
    31        -0.141       0.000
    32         0.432       0.000
    33         0.572       0.000
    34         1.517       0.000
    35         2.299       0.000
    36         3.211       0.000
   ...
    41         5.140       0.000

kpt = [-0.429, -0.357, 0.000], weight = 0.005:
  Band      eig [eV]   occ [0-1]
     0       -82.176       1.000
   ...
    21        -3.905       1.000
    22        -3.884       1.000
    23        -3.718       1.000
    24        -3.622       1.000
    25        -3.426       1.000
    26        -3.315       1.000
    27        -2.317       1.000
    28        -1.958       0.999
    29        -0.430       0.000
    30        -0.243       0.000
    31        -0.145       0.000
    32         0.409       0.000
    33         0.558       0.000
    34         1.545       0.000
    35         2.280       0.000
    36         3.079       0.000
   ...
    41         4.948       0.000

kpt = [-0.429, -0.286, 0.000], weight = 0.005:
  Band      eig [eV]   occ [0-1]
     0       -82.176       1.000
   ...
    21        -3.918       1.000
    22        -3.772       1.000
    23        -3.664       1.000
    24        -3.560       1.000
    25        -3.430       1.000
    26        -3.239       1.000
    27        -2.371       1.000
    28        -1.965       0.999
    29        -0.380       0.000
    30        -0.223       0.000
    31        -0.188       0.000
    32         0.336       0.000
    33         0.540       0.000
    34         1.770       0.000
    35         2.449       0.000
    36         3.267       0.000
   ...
    41         5.103       0.000
(only showing first 3 out of 196 k-points)

Gap: 1.101 eV
Transition (v -> c):
  (s=0, k=90, n=28, [0.00, 0.00, 0.00]) -> (s=0, k=188, n=29, [0.50, 0.00, 0.00])
# Writing to Band_Conv/gsq-31.gpw (mode='')

---

timing:  # [seconds]
  Total: 1248.838  # ━━━━━━━━━━━━━━━━━━━━━━━━━━━━━━━━━━━━━━━━━━━━━━━━━━━━━━━━
  Init:    18.951  # ━
  SCF:   1229.430  # ━━━━━━━━━━━━━━━━━━━━━━━━━━━━━━━━━━━━━━━━━━━━━━━━━━━━━━━

Max RSS: 1370.977  # MiB
