#  __  _  _
# | _ |_)|_||  |
# |__||  | ||/\| - 24.1.0

User:   s194113@n-62-29-34
Date:   Mon May  6 01:07:46 2024
Arch:   x86_64
Pid:    15878
CWD:    /work3/s194113/10302/10302_NM/MnI2
Python: 3.8.5
gpaw:   /zhome/87/8/147075/venv-name/gpaw/gpaw (10808453a8)
_gpaw:  /zhome/87/8/147075/venv-name/gpaw/
        _gpaw.cpython-38-x86_64-linux-gnu.so (10808453a8)
ase:    /zhome/87/8/147075/venv-name/ase/ase (version 3.23.0b1-c36115a2db)
numpy:  /zhome/87/8/147075/venv-name/lib/python3.8/site-packages/numpy (version 1.24.4)
scipy:  /zhome/87/8/147075/venv-name/lib/python3.8/site-packages/scipy (version 1.10.1)
libxc:  4.3.4
units:  Angstrom and eV
cores: 18
OpenMP: False
OMP_NUM_THREADS: 1

---
input parameters:
  kpts: 
    density: 8.0
    gamma: True
  magmoms: [[4.4079912, 0, 0], [0.08032672, 0, 0], [0.08032672, 0, 0]]
  mixer: 
    backend: 'pulay'
    beta: 0.05
    method: 'sum'
    nmaxold: 5
    weight: 100
  mode: 
    name: 'pw'
    ecut: 800.0
    qspiral: array([0.05555556, 0.        , 0.        ])
  parallel: 
    kpt: None
    domain: 1
    band: 1
    order: 'kdb'
    stridebands: False
    augment_grids: False
    sl_auto: False
    sl_default: None
    sl_diagonalize: None
    sl_inverse_cholesky: None
    sl_lcao: None
    sl_lrtddft: None
    use_elpa: False
    elpasolver: '2stage'
    buffer_size: None
    gpu: False
  symmetry: 
    point_group: False
    time_reversal: False
  xc: 
    name: 'LDA'

#                        
#                        
#                        
#                        
#              I         
#                        
#                        
#        Mn              
#          I             
#                        
#                        
#                        
#                        
#                        

atoms: [  # symbols, positions [Ang] and initial magnetic moments
  [ Mn, [   0.000000,    0.000000,    7.649535], [ 4.408,  0.000,  0.000]], # 0
  [  I, [   2.082858,    1.202539,    9.299069], [ 0.080,  0.000,  0.000]], # 1
  [  I, [   0.000000,    2.405077,    6.000000], [ 0.080,  0.000,  0.000]]] # 2

cell: [  # Ang
#     x            y            z
  [   4.165716,    0.000000,    0.000000],
  [  -2.082858,    3.607616,    0.000000],
  [   0.000000,    0.000000,   15.299069]]

periodic: [True      , True      , False     ]
lengths:  [  4.165716,   4.165716,  15.299069]  # Ang
angles:   [ 90.000000,  90.000000, 120.000000]

symmetry:
  number of symmetries: 1
  rotations: [
    [[ 1,  0,  0], [ 0,  1,  0], [ 0,  0,  1]]]

bz sampling:
  number of bz points: 196
  number of ibz points: 196
  monkhorst-pack size: [14, 14, 1]
  monkhorst-pack shift: [0.03571428571428571, 0.03571428571428571, 0.0]
  points and weights: [
    [[ -0.42857143,  -0.42857143,   0.00000000], 0.00510204],  # 0
    [[ -0.42857143,  -0.35714286,   0.00000000], 0.00510204],  # 1
    [[ -0.42857143,  -0.28571429,   0.00000000], 0.00510204],  # 2
    [[ -0.42857143,  -0.21428571,   0.00000000], 0.00510204],  # 3
    [[ -0.42857143,  -0.14285714,   0.00000000], 0.00510204],  # 4
    [[ -0.42857143,  -0.07142857,   0.00000000], 0.00510204],  # 5
    [[ -0.42857143,   0.00000000,   0.00000000], 0.00510204],  # 6
    [[ -0.42857143,   0.07142857,   0.00000000], 0.00510204],  # 7
    [[ -0.42857143,   0.14285714,   0.00000000], 0.00510204],  # 8
    [[ -0.42857143,   0.21428571,   0.00000000], 0.00510204],  # 9
    # ...
    [[  0.50000000,   0.50000000,   0.00000000], 0.00510204]]  # 195

plane wave coefficients: 11927
cutoff: 800.0 eV

spin-components: 4  # (non-collinear spins)
bands: 42
valence electrons: 29.0
spin-degeneracy: 1
dtype: complex128

memory:
    wave functions: 3_105_768_960  # bytes  (172_542_720 per core)

parallelization:
    kpt:    18
    domain: 1
    band:   1

density:
  components: 4
  grid points: [ 28  28 100]
  charge: 0.0  # |e|

potential:
  grid points: [ 28  28 100]

species:
  Mn:
    name: Manganese
    id: 0d715a8018be061a6e9ea6f2d364ac92
    Z: 25.0
    valence: 15
    core: 10
    charge: 0.0
    file: /zhome/86/d/1666/PAW/gpaw-setups-0.9.20000/Mn.LDA.gz
    compensation charges: {type: gauss,
                           rc: 0.38,
                           lmax: 2}
    cutoffs: {filter: 2.14,
              core: 0.86}
    valence states:
      #              energy  rcut
      - 3s(2.00)   -85.387   1.275
      - 4s(2.00)    -5.282   1.275
      - 3p(6.00)   -54.493   1.281
      - 4p(0.00)    -1.471   1.281
      - 3d(5.00)    -7.009   1.138
      -  d          20.203   1.138
  
    # Using partial waves for Mn as LCAO basis

  I:
    name: Iodine
    id: b559721c0c096a7b4c8fc0e0f4de5cf4
    Z: 53.0
    valence: 7
    core: 46
    charge: 0.0
    file: /zhome/86/d/1666/PAW/gpaw-setups-0.9.20000/I.LDA.gz
    compensation charges: {type: gauss,
                           rc: 0.37,
                           lmax: 2}
    cutoffs: {filter: 2.06,
              core: 2.90}
    valence states:
      #              energy  rcut
      - 5s(2.00)   -17.626   1.164
      - 5p(5.00)    -7.241   1.164
      -  s           9.585   1.164
      -  p          19.970   1.164
      -  d           0.000   1.164
  
    # Using partial waves for I as LCAO basis

Reference energy: -418222.442431  # eV

eigensolver:
  name: 'Davidson'
  niter: 2
  converge_bands: 'occupied'
Density mixing:
  Method: sum
  Backend: pulay
  Linear mixing parameter: 0.05
  old densities: 5
  Damping of long wavelength oscillations: 100
occupation numbers:
  Fermi-Dirac:
    width: 0.1000  # eV
  

poisson solver:
  ecut: 6400.0  # eV

xc functional:
  name: None

convergence criteria:
- Maximum [total energy] change in last 3 cyles: 0.0005 eV / valence electron
- Maximum integral of absolute [dens]ity change: 0.0001 electrons / valence electron
- Maximum integral of absolute [eigenst]ate change: 4e-08 eV^2 / valence electron
maximum number of iterations: 333

#      iter     time        total  log10-change:
#                          energy   eigst   dens
# iter:   1 01:08:33   -15.208400                  +4.6,+0.0,+0.0
# iter:   2 01:09:02   -15.182839   -0.76  -1.49   +4.8,-0.0,+0.0
# iter:   3 01:09:31   -15.105942   -1.16  -1.51   +4.8,+0.0,+0.0
# iter:   4 01:10:01   -15.119370   -1.49  -1.60   +4.9,+0.0,-0.0
# iter:   5 01:10:30   -15.155059   -1.74  -1.79   +5.0,+0.0,-0.0
# iter:   6 01:11:00   -15.125337   -1.97  -2.29   +5.0,+0.0,-0.0
# iter:   7 01:11:29   -15.122660   -2.26  -2.41   +5.0,+0.0,+0.0
# iter:   8 01:11:59   -15.122921c  -2.62  -2.77   +5.0,+0.0,-0.0
# iter:   9 01:12:29   -15.133939c  -2.62  -2.76   +5.0,+0.0,-0.0
# iter:  10 01:12:58   -15.125007c  -2.99  -2.58   +5.0,+0.0,-0.0
# iter:  11 01:13:27   -15.122357c  -3.08  -2.82   +5.0,+0.0,-0.0
# iter:  12 01:13:57   -15.122536c  -3.50  -3.38   +5.0,+0.0,-0.0
# iter:  13 01:14:27   -15.122922c  -3.60  -3.39   +5.0,+0.0,-0.0
# iter:  14 01:14:56   -15.122615c  -3.82  -3.28   +5.0,+0.0,-0.0
# iter:  15 01:15:26   -15.122724c  -3.94  -3.60   +5.0,+0.0,-0.0
# iter:  16 01:15:55   -15.122683c  -4.21  -3.53   +5.0,+0.0,-0.0
# iter:  17 01:16:25   -15.122656c  -4.39  -3.57   +5.0,+0.0,-0.0
# iter:  18 01:16:54   -15.122990c  -4.30  -3.57   +5.0,+0.0,-0.0
# iter:  19 01:17:23   -15.122686c  -4.47  -3.31   +5.0,+0.0,-0.0
# iter:  20 01:17:53   -15.122739c  -4.90  -3.61   +5.0,+0.0,-0.0
# iter:  21 01:18:23   -15.122648c  -4.59  -3.55   +5.0,+0.0,-0.0
# iter:  22 01:18:52   -15.122641c  -5.24  -3.72   +5.0,+0.0,+0.0
# iter:  23 01:19:21   -15.122639c  -5.41  -3.76   +5.0,+0.0,+0.0
# iter:  24 01:19:50   -15.122641c  -5.53  -3.78   +5.0,+0.0,-0.0
# iter:  25 01:20:20   -15.122635c  -5.64  -3.92   +5.0,+0.0,-0.0
# iter:  26 01:20:49   -15.122636c  -5.84  -3.98   +5.0,+0.0,-0.0
# iter:  27 01:21:18   -15.122632c  -5.92  -4.00   +5.0,+0.0,-0.0
# iter:  28 01:21:48   -15.122636c  -5.82  -4.09c  +5.0,+0.0,-0.0
# iter:  29 01:22:17   -15.122637c  -6.28  -4.69c  +5.0,+0.0,-0.0
# iter:  30 01:22:46   -15.122630c  -6.12  -4.74c  +5.0,+0.0,-0.0
# iter:  31 01:23:15   -15.122632c  -6.41  -4.31c  +5.0,+0.0,-0.0
# iter:  32 01:23:44   -15.122635c  -6.60  -4.70c  +5.0,+0.0,-0.0
# iter:  33 01:24:14   -15.122636c  -6.87  -5.54c  +5.0,+0.0,-0.0
# iter:  34 01:24:43   -15.122635c  -7.03  -5.49c  +5.0,+0.0,-0.0
# iter:  35 01:25:12   -15.122635c  -7.18  -5.65c  +5.0,+0.0,-0.0
# iter:  36 01:25:41   -15.122635c  -7.31  -5.88c  +5.0,+0.0,-0.0
# iter:  37 01:26:11   -15.122635c  -7.45c -5.89c  +5.0,+0.0,-0.0
scf_steps: 37
energies:  # eV
  coulomb:         -13.040694
  zero:              0.092871
  xc:              -17.251311
  external:          0.000000
  kinetic:          15.077660
  spinorbit:         0.000000
  entropy:          -0.002321
  total:           -15.123796
  extrapolated:    -15.122635

dipole moment: [-5.809256, -10.122680, -14.459613]  # |e|*Ang

total magnetic moment: [4.982108, 0.004454, -0.000000]

local magnetic moments: [
  [ 4.360874, -0.000131, -0.000000],  # Mn 0
  [ 0.081952, -0.019475, -0.000000],  # I  1
  [ 0.083670, -0.009734,  0.000000]]  # I  2


Fermi level: -1.256 eV

kpt = [-0.429, -0.429, 0.000], weight = 0.005:
  Band      eig [eV]   occ [0-1]
     0       -82.222       1.000
   ...
    21        -3.993       1.000
    22        -3.932       1.000
    23        -3.833       1.000
    24        -3.720       1.000
    25        -3.668       1.000
    26        -3.598       1.000
    27        -2.165       1.000
    28        -2.076       1.000
    29        -0.553       0.001
    30        -0.165       0.000
    31        -0.160       0.000
    32         0.447       0.000
    33         0.636       0.000
    34         1.365       0.000
    35         2.244       0.000
    36         3.339       0.000
   ...
    41         4.763       0.000

kpt = [-0.429, -0.357, 0.000], weight = 0.005:
  Band      eig [eV]   occ [0-1]
     0       -82.222       1.000
   ...
    21        -4.119       1.000
    22        -3.999       1.000
    23        -3.803       1.000
    24        -3.740       1.000
    25        -3.608       1.000
    26        -3.563       1.000
    27        -2.326       1.000
    28        -2.116       1.000
    29        -0.415       0.000
    30        -0.178       0.000
    31        -0.156       0.000
    32         0.378       0.000
    33         0.579       0.000
    34         1.645       0.000
    35         2.508       0.000
    36         3.739       0.000
   ...
    41         4.827       0.000

kpt = [-0.429, -0.286, 0.000], weight = 0.005:
  Band      eig [eV]   occ [0-1]
     0       -82.222       1.000
   ...
    21        -4.215       1.000
    22        -4.007       1.000
    23        -3.796       1.000
    24        -3.760       1.000
    25        -3.578       1.000
    26        -3.539       1.000
    27        -2.390       1.000
    28        -2.135       1.000
    29        -0.351       0.000
    30        -0.188       0.000
    31        -0.158       0.000
    32         0.354       0.000
    33         0.550       0.000
    34         1.771       0.000
    35         2.643       0.000
    36         3.699       0.000
   ...
    41         5.310       0.000
(only showing first 3 out of 196 k-points)

Gap: 0.897 eV
Transition (v -> c):
  (s=0, k=90, n=28, [0.00, 0.00, 0.00]) -> (s=0, k=188, n=29, [0.50, 0.00, 0.00])
# Writing to Band_Conv/gsq-04.gpw (mode='')

