#  __  _  _
# | _ |_)|_||  |
# |__||  | ||/\| - 24.1.0

User:   s194113@n-62-29-34
Date:   Tue May  7 07:51:22 2024
Arch:   x86_64
Pid:    15878
CWD:    /work3/s194113/10302/10302_NM/MnI2
Python: 3.8.5
gpaw:   /zhome/87/8/147075/venv-name/gpaw/gpaw (10808453a8)
_gpaw:  /zhome/87/8/147075/venv-name/gpaw/
        _gpaw.cpython-38-x86_64-linux-gnu.so (10808453a8)
ase:    /zhome/87/8/147075/venv-name/ase/ase (version 3.23.0b1-c36115a2db)
numpy:  /zhome/87/8/147075/venv-name/lib/python3.8/site-packages/numpy (version 1.24.4)
scipy:  /zhome/87/8/147075/venv-name/lib/python3.8/site-packages/scipy (version 1.10.1)
libxc:  4.3.4
units:  Angstrom and eV
cores: 18
OpenMP: False
OMP_NUM_THREADS: 1

---
input parameters:
  kpts: 
    density: 8.0
    gamma: True
  magmoms: [[4.4079912, 0, 0], [0.08032672, 0, 0], [0.08032672, 0, 0]]
  mixer: 
    backend: 'pulay'
    beta: 0.05
    method: 'sum'
    nmaxold: 5
    weight: 100
  mode: 
    name: 'pw'
    ecut: 800.0
    qspiral: array([0.03875969, 0.03875969, 0.        ])
  parallel: 
    kpt: None
    domain: 1
    band: 1
    order: 'kdb'
    stridebands: False
    augment_grids: False
    sl_auto: False
    sl_default: None
    sl_diagonalize: None
    sl_inverse_cholesky: None
    sl_lcao: None
    sl_lrtddft: None
    use_elpa: False
    elpasolver: '2stage'
    buffer_size: None
    gpu: False
  symmetry: 
    point_group: False
    time_reversal: False
  xc: 
    name: 'LDA'

#                        
#                        
#                        
#                        
#              I         
#                        
#                        
#        Mn              
#          I             
#                        
#                        
#                        
#                        
#                        

atoms: [  # symbols, positions [Ang] and initial magnetic moments
  [ Mn, [   0.000000,    0.000000,    7.649535], [ 4.408,  0.000,  0.000]], # 0
  [  I, [   2.082858,    1.202539,    9.299069], [ 0.080,  0.000,  0.000]], # 1
  [  I, [   0.000000,    2.405077,    6.000000], [ 0.080,  0.000,  0.000]]] # 2

cell: [  # Ang
#     x            y            z
  [   4.165716,    0.000000,    0.000000],
  [  -2.082858,    3.607616,    0.000000],
  [   0.000000,    0.000000,   15.299069]]

periodic: [True      , True      , False     ]
lengths:  [  4.165716,   4.165716,  15.299069]  # Ang
angles:   [ 90.000000,  90.000000, 120.000000]

symmetry:
  number of symmetries: 1
  rotations: [
    [[ 1,  0,  0], [ 0,  1,  0], [ 0,  0,  1]]]

bz sampling:
  number of bz points: 196
  number of ibz points: 196
  monkhorst-pack size: [14, 14, 1]
  monkhorst-pack shift: [0.03571428571428571, 0.03571428571428571, 0.0]
  points and weights: [
    [[ -0.42857143,  -0.42857143,   0.00000000], 0.00510204],  # 0
    [[ -0.42857143,  -0.35714286,   0.00000000], 0.00510204],  # 1
    [[ -0.42857143,  -0.28571429,   0.00000000], 0.00510204],  # 2
    [[ -0.42857143,  -0.21428571,   0.00000000], 0.00510204],  # 3
    [[ -0.42857143,  -0.14285714,   0.00000000], 0.00510204],  # 4
    [[ -0.42857143,  -0.07142857,   0.00000000], 0.00510204],  # 5
    [[ -0.42857143,   0.00000000,   0.00000000], 0.00510204],  # 6
    [[ -0.42857143,   0.07142857,   0.00000000], 0.00510204],  # 7
    [[ -0.42857143,   0.14285714,   0.00000000], 0.00510204],  # 8
    [[ -0.42857143,   0.21428571,   0.00000000], 0.00510204],  # 9
    # ...
    [[  0.50000000,   0.50000000,   0.00000000], 0.00510204]]  # 195

plane wave coefficients: 11927
cutoff: 800.0 eV

spin-components: 4  # (non-collinear spins)
bands: 42
valence electrons: 29.0
spin-degeneracy: 1
dtype: complex128

memory:
    wave functions: 3_105_768_960  # bytes  (172_542_720 per core)

parallelization:
    kpt:    18
    domain: 1
    band:   1

density:
  components: 4
  grid points: [ 28  28 100]
  charge: 0.0  # |e|

potential:
  grid points: [ 28  28 100]

species:
  Mn:
    name: Manganese
    id: 0d715a8018be061a6e9ea6f2d364ac92
    Z: 25.0
    valence: 15
    core: 10
    charge: 0.0
    file: /zhome/86/d/1666/PAW/gpaw-setups-0.9.20000/Mn.LDA.gz
    compensation charges: {type: gauss,
                           rc: 0.38,
                           lmax: 2}
    cutoffs: {filter: 2.14,
              core: 0.86}
    valence states:
      #              energy  rcut
      - 3s(2.00)   -85.387   1.275
      - 4s(2.00)    -5.282   1.275
      - 3p(6.00)   -54.493   1.281
      - 4p(0.00)    -1.471   1.281
      - 3d(5.00)    -7.009   1.138
      -  d          20.203   1.138
  
    # Using partial waves for Mn as LCAO basis

  I:
    name: Iodine
    id: b559721c0c096a7b4c8fc0e0f4de5cf4
    Z: 53.0
    valence: 7
    core: 46
    charge: 0.0
    file: /zhome/86/d/1666/PAW/gpaw-setups-0.9.20000/I.LDA.gz
    compensation charges: {type: gauss,
                           rc: 0.37,
                           lmax: 2}
    cutoffs: {filter: 2.06,
              core: 2.90}
    valence states:
      #              energy  rcut
      - 5s(2.00)   -17.626   1.164
      - 5p(5.00)    -7.241   1.164
      -  s           9.585   1.164
      -  p          19.970   1.164
      -  d           0.000   1.164
  
    # Using partial waves for I as LCAO basis

Reference energy: -418222.442431  # eV

eigensolver:
  name: 'Davidson'
  niter: 2
  converge_bands: 'occupied'
Density mixing:
  Method: sum
  Backend: pulay
  Linear mixing parameter: 0.05
  old densities: 5
  Damping of long wavelength oscillations: 100
occupation numbers:
  Fermi-Dirac:
    width: 0.1000  # eV
  

poisson solver:
  ecut: 6400.0  # eV

xc functional:
  name: None

convergence criteria:
- Maximum [total energy] change in last 3 cyles: 0.0005 eV / valence electron
- Maximum integral of absolute [dens]ity change: 0.0001 electrons / valence electron
- Maximum integral of absolute [eigenst]ate change: 4e-08 eV^2 / valence electron
maximum number of iterations: 333

#      iter     time        total  log10-change:
#                          energy   eigst   dens
# iter:   1 07:52:08   -15.207260                  +4.6,+0.0,+0.0
# iter:   2 07:52:38   -15.183439   -0.76  -1.49   +4.8,-0.0,-0.0
# iter:   3 07:53:07   -15.106870   -1.16  -1.51   +4.8,+0.0,+0.0
# iter:   4 07:53:37   -15.119750   -1.49  -1.60   +4.9,+0.0,+0.0
# iter:   5 07:54:06   -15.156128   -1.74  -1.79   +5.0,+0.0,+0.0
# iter:   6 07:54:36   -15.125746   -1.97  -2.29   +5.0,+0.0,-0.0
# iter:   7 07:55:05   -15.123280   -2.27  -2.41   +5.0,+0.0,+0.0
# iter:   8 07:55:35   -15.126335c  -2.60  -2.77   +5.0,+0.0,+0.0
# iter:   9 07:56:04   -15.131441c  -2.79  -2.68   +5.0,+0.0,+0.0
# iter:  10 07:56:34   -15.122788c  -2.80  -2.65   +5.0,+0.0,+0.0
# iter:  11 07:57:03   -15.123098c  -3.29  -3.45   +5.0,+0.0,-0.0
# iter:  12 07:57:32   -15.123127c  -3.51  -3.50   +5.0,+0.0,+0.0
# iter:  13 07:58:01   -15.123138c  -3.69  -3.56   +5.0,+0.0,+0.0
# iter:  14 07:58:30   -15.123169c  -3.85  -3.59   +5.0,+0.0,+0.0
# iter:  15 07:58:59   -15.123178c  -4.02  -3.65   +5.0,+0.0,+0.0
# iter:  16 07:59:29   -15.123207c  -4.13  -3.72   +5.0,+0.0,+0.0
# iter:  17 07:59:58   -15.123190c  -4.36  -4.04c  +5.0,+0.0,+0.0
# iter:  18 08:00:27   -15.123185c  -4.53  -4.22c  +5.0,+0.0,+0.0
# iter:  19 08:00:56   -15.123191c  -4.69  -4.22c  +5.0,+0.0,+0.0
# iter:  20 08:01:25   -15.123193c  -4.85  -4.29c  +5.0,+0.0,+0.0
# iter:  21 08:01:54   -15.123192c  -5.00  -4.32c  +5.0,+0.0,+0.0
# iter:  22 08:02:23   -15.123190c  -5.15  -4.87c  +5.0,+0.0,-0.0
# iter:  23 08:02:52   -15.123190c  -5.31  -5.05c  +5.0,+0.0,+0.0
# iter:  24 08:03:21   -15.123190c  -5.46  -5.07c  +5.0,+0.0,-0.0
# iter:  25 08:03:50   -15.123190c  -5.62  -5.26c  +5.0,+0.0,+0.0
# iter:  26 08:04:19   -15.123190c  -5.78  -5.45c  +5.0,+0.0,+0.0
# iter:  27 08:04:48   -15.123190c  -5.94  -5.44c  +5.0,+0.0,+0.0
# iter:  28 08:05:17   -15.123189c  -6.09  -5.36c  +5.0,+0.0,-0.0
# iter:  29 08:05:46   -15.123190c  -6.24  -5.31c  +5.0,+0.0,-0.0
# iter:  30 08:06:15   -15.123190c  -6.39  -5.36c  +5.0,+0.0,-0.0
# iter:  31 08:06:44   -15.123190c  -6.54  -5.38c  +5.0,+0.0,-0.0
# iter:  32 08:07:14   -15.123190c  -6.69  -5.35c  +5.0,+0.0,-0.0
# iter:  33 08:07:43   -15.123190c  -6.83  -5.34c  +5.0,+0.0,-0.0
# iter:  34 08:08:12   -15.123190c  -6.98  -5.41c  +5.0,+0.0,+0.0
# iter:  35 08:08:42   -15.123190c  -7.16  -5.41c  +5.0,+0.0,-0.0
# iter:  36 08:09:11   -15.123190c  -7.33  -5.50c  +5.0,+0.0,-0.0
# iter:  37 08:09:41   -15.123190c  -7.50c -5.92c  +5.0,+0.0,-0.0
scf_steps: 37
energies:  # eV
  coulomb:         -13.023325
  zero:              0.092766
  xc:              -17.248398
  external:          0.000000
  kinetic:          15.056898
  spinorbit:         0.000000
  entropy:          -0.002262
  total:           -15.124321
  extrapolated:    -15.123190

dipole moment: [-5.818511, -10.077956, -14.410169]  # |e|*Ang

total magnetic moment: [4.975736, 0.006126, -0.000000]

local magnetic moments: [
  [ 4.360105, -0.000194, -0.000000],  # Mn 0
  [ 0.080972, -0.020123,  0.000000],  # I  1
  [ 0.080972, -0.020123,  0.000000]]  # I  2


Fermi level: -1.256 eV

kpt = [-0.429, -0.429, 0.000], weight = 0.005:
  Band      eig [eV]   occ [0-1]
     0       -82.221       1.000
   ...
    21        -3.980       1.000
    22        -3.940       1.000
    23        -3.846       1.000
    24        -3.710       1.000
    25        -3.677       1.000
    26        -3.599       1.000
    27        -2.158       1.000
    28        -2.079       1.000
    29        -0.555       0.001
    30        -0.167       0.000
    31        -0.159       0.000
    32         0.452       0.000
    33         0.635       0.000
    34         1.352       0.000
    35         2.252       0.000
    36         3.274       0.000
   ...
    41         4.814       0.000

kpt = [-0.429, -0.357, 0.000], weight = 0.005:
  Band      eig [eV]   occ [0-1]
     0       -82.221       1.000
   ...
    21        -4.114       1.000
    22        -3.997       1.000
    23        -3.810       1.000
    24        -3.739       1.000
    25        -3.607       1.000
    26        -3.565       1.000
    27        -2.316       1.000
    28        -2.118       1.000
    29        -0.416       0.000
    30        -0.181       0.000
    31        -0.155       0.000
    32         0.384       0.000
    33         0.579       0.000
    34         1.625       0.000
    35         2.498       0.000
    36         3.715       0.000
   ...
    41         4.754       0.000

kpt = [-0.429, -0.286, 0.000], weight = 0.005:
  Band      eig [eV]   occ [0-1]
     0       -82.221       1.000
   ...
    21        -4.218       1.000
    22        -4.005       1.000
    23        -3.793       1.000
    24        -3.768       1.000
    25        -3.576       1.000
    26        -3.541       1.000
    27        -2.381       1.000
    28        -2.135       1.000
    29        -0.350       0.000
    30        -0.193       0.000
    31        -0.157       0.000
    32         0.359       0.000
    33         0.550       0.000
    34         1.757       0.000
    35         2.620       0.000
    36         3.723       0.000
   ...
    41         5.254       0.000
(only showing first 3 out of 196 k-points)

Gap: 0.905 eV
Transition (v -> c):
  (s=0, k=90, n=28, [0.00, 0.00, 0.00]) -> (s=0, k=188, n=29, [0.50, 0.00, 0.00])
# Writing to Band_Conv/gsq-95.gpw (mode='')

---

timing:  # [seconds]
  Total: 1100.656  # ━━━━━━━━━━━━━━━━━━━━━━━━━━━━━━━━━━━━━━━━━━━━━━━━━━━━━━━━
  Init:    19.003  # ━
  SCF:   1079.712  # ━━━━━━━━━━━━━━━━━━━━━━━━━━━━━━━━━━━━━━━━━━━━━━━━━━━━━━━

Max RSS: 2767.918  # MiB
