#  __  _  _
# | _ |_)|_||  |
# |__||  | ||/\| - 24.1.0

User:   s194113@n-62-29-34
Date:   Tue May  7 00:25:40 2024
Arch:   x86_64
Pid:    15878
CWD:    /work3/s194113/10302/10302_NM/MnI2
Python: 3.8.5
gpaw:   /zhome/87/8/147075/venv-name/gpaw/gpaw (10808453a8)
_gpaw:  /zhome/87/8/147075/venv-name/gpaw/
        _gpaw.cpython-38-x86_64-linux-gnu.so (10808453a8)
ase:    /zhome/87/8/147075/venv-name/ase/ase (version 3.23.0b1-c36115a2db)
numpy:  /zhome/87/8/147075/venv-name/lib/python3.8/site-packages/numpy (version 1.24.4)
scipy:  /zhome/87/8/147075/venv-name/lib/python3.8/site-packages/scipy (version 1.10.1)
libxc:  4.3.4
units:  Angstrom and eV
cores: 18
OpenMP: False
OMP_NUM_THREADS: 1

---
input parameters:
  kpts: 
    density: 8.0
    gamma: True
  magmoms: [[4.4079912, 0, 0], [0.08032672, 0, 0], [0.08032672, 0, 0]]
  mixer: 
    backend: 'pulay'
    beta: 0.05
    method: 'sum'
    nmaxold: 5
    weight: 100
  mode: 
    name: 'pw'
    ecut: 800.0
    qspiral: array([0.21705426, 0.21705426, 0.        ])
  parallel: 
    kpt: None
    domain: 1
    band: 1
    order: 'kdb'
    stridebands: False
    augment_grids: False
    sl_auto: False
    sl_default: None
    sl_diagonalize: None
    sl_inverse_cholesky: None
    sl_lcao: None
    sl_lrtddft: None
    use_elpa: False
    elpasolver: '2stage'
    buffer_size: None
    gpu: False
  symmetry: 
    point_group: False
    time_reversal: False
  xc: 
    name: 'LDA'

#                        
#                        
#                        
#                        
#              I         
#                        
#                        
#        Mn              
#          I             
#                        
#                        
#                        
#                        
#                        

atoms: [  # symbols, positions [Ang] and initial magnetic moments
  [ Mn, [   0.000000,    0.000000,    7.649535], [ 4.408,  0.000,  0.000]], # 0
  [  I, [   2.082858,    1.202539,    9.299069], [ 0.080,  0.000,  0.000]], # 1
  [  I, [   0.000000,    2.405077,    6.000000], [ 0.080,  0.000,  0.000]]] # 2

cell: [  # Ang
#     x            y            z
  [   4.165716,    0.000000,    0.000000],
  [  -2.082858,    3.607616,    0.000000],
  [   0.000000,    0.000000,   15.299069]]

periodic: [True      , True      , False     ]
lengths:  [  4.165716,   4.165716,  15.299069]  # Ang
angles:   [ 90.000000,  90.000000, 120.000000]

symmetry:
  number of symmetries: 1
  rotations: [
    [[ 1,  0,  0], [ 0,  1,  0], [ 0,  0,  1]]]

bz sampling:
  number of bz points: 196
  number of ibz points: 196
  monkhorst-pack size: [14, 14, 1]
  monkhorst-pack shift: [0.03571428571428571, 0.03571428571428571, 0.0]
  points and weights: [
    [[ -0.42857143,  -0.42857143,   0.00000000], 0.00510204],  # 0
    [[ -0.42857143,  -0.35714286,   0.00000000], 0.00510204],  # 1
    [[ -0.42857143,  -0.28571429,   0.00000000], 0.00510204],  # 2
    [[ -0.42857143,  -0.21428571,   0.00000000], 0.00510204],  # 3
    [[ -0.42857143,  -0.14285714,   0.00000000], 0.00510204],  # 4
    [[ -0.42857143,  -0.07142857,   0.00000000], 0.00510204],  # 5
    [[ -0.42857143,   0.00000000,   0.00000000], 0.00510204],  # 6
    [[ -0.42857143,   0.07142857,   0.00000000], 0.00510204],  # 7
    [[ -0.42857143,   0.14285714,   0.00000000], 0.00510204],  # 8
    [[ -0.42857143,   0.21428571,   0.00000000], 0.00510204],  # 9
    # ...
    [[  0.50000000,   0.50000000,   0.00000000], 0.00510204]]  # 195

plane wave coefficients: 11927
cutoff: 800.0 eV

spin-components: 4  # (non-collinear spins)
bands: 42
valence electrons: 29.0
spin-degeneracy: 1
dtype: complex128

memory:
    wave functions: 3_105_768_960  # bytes  (172_542_720 per core)

parallelization:
    kpt:    18
    domain: 1
    band:   1

density:
  components: 4
  grid points: [ 28  28 100]
  charge: 0.0  # |e|

potential:
  grid points: [ 28  28 100]

species:
  Mn:
    name: Manganese
    id: 0d715a8018be061a6e9ea6f2d364ac92
    Z: 25.0
    valence: 15
    core: 10
    charge: 0.0
    file: /zhome/86/d/1666/PAW/gpaw-setups-0.9.20000/Mn.LDA.gz
    compensation charges: {type: gauss,
                           rc: 0.38,
                           lmax: 2}
    cutoffs: {filter: 2.14,
              core: 0.86}
    valence states:
      #              energy  rcut
      - 3s(2.00)   -85.387   1.275
      - 4s(2.00)    -5.282   1.275
      - 3p(6.00)   -54.493   1.281
      - 4p(0.00)    -1.471   1.281
      - 3d(5.00)    -7.009   1.138
      -  d          20.203   1.138
  
    # Using partial waves for Mn as LCAO basis

  I:
    name: Iodine
    id: b559721c0c096a7b4c8fc0e0f4de5cf4
    Z: 53.0
    valence: 7
    core: 46
    charge: 0.0
    file: /zhome/86/d/1666/PAW/gpaw-setups-0.9.20000/I.LDA.gz
    compensation charges: {type: gauss,
                           rc: 0.37,
                           lmax: 2}
    cutoffs: {filter: 2.06,
              core: 2.90}
    valence states:
      #              energy  rcut
      - 5s(2.00)   -17.626   1.164
      - 5p(5.00)    -7.241   1.164
      -  s           9.585   1.164
      -  p          19.970   1.164
      -  d           0.000   1.164
  
    # Using partial waves for I as LCAO basis

Reference energy: -418222.442431  # eV

eigensolver:
  name: 'Davidson'
  niter: 2
  converge_bands: 'occupied'
Density mixing:
  Method: sum
  Backend: pulay
  Linear mixing parameter: 0.05
  old densities: 5
  Damping of long wavelength oscillations: 100
occupation numbers:
  Fermi-Dirac:
    width: 0.1000  # eV
  

poisson solver:
  ecut: 6400.0  # eV

xc functional:
  name: None

convergence criteria:
- Maximum [total energy] change in last 3 cyles: 0.0005 eV / valence electron
- Maximum integral of absolute [dens]ity change: 0.0001 electrons / valence electron
- Maximum integral of absolute [eigenst]ate change: 4e-08 eV^2 / valence electron
maximum number of iterations: 333

#      iter     time        total  log10-change:
#                          energy   eigst   dens
# iter:   1 00:26:26   -15.006239                  +4.6,+0.0,+0.0
# iter:   2 00:26:56   -15.181925   -0.34  -1.49   +4.3,-0.0,-0.0
# iter:   3 00:27:25   -15.139589   -0.92  -1.52   +4.3,-0.0,-0.0
# iter:   4 00:27:54   -15.153677   -1.17  -1.57   +4.4,+0.0,-0.0
# iter:   5 00:28:24   -15.220615   -1.48  -1.76   +4.6,+0.0,+0.0
# iter:   6 00:28:53   -15.192683   -1.84  -2.20   +4.6,+0.0,+0.0
# iter:   7 00:29:22   -15.243811   -2.03  -2.25   +4.6,+0.0,-0.0
# iter:   8 00:29:52   -15.142796   -1.59  -2.11   +4.6,+0.0,-0.0
# iter:   9 00:30:21   -15.147152   -2.43  -2.76   +4.5,+0.0,-0.0
# iter:  10 00:30:50   -15.163341   -2.58  -2.62   +4.5,+0.0,-0.0
# iter:  11 00:31:19   -15.141288   -2.67  -2.41   +4.5,+0.0,-0.0
# iter:  12 00:31:49   -15.141297   -3.20  -2.93   +4.5,+0.0,+0.0
# iter:  13 00:32:18   -15.140933c  -3.43  -3.02   +4.5,+0.0,-0.0
# iter:  14 00:32:47   -15.140595c  -3.61  -3.14   +4.6,+0.0,-0.0
# iter:  15 00:33:16   -15.140537c  -3.77  -3.30   +4.6,+0.0,+0.0
# iter:  16 00:33:45   -15.140562c  -3.98  -3.50   +4.6,+0.0,+0.0
# iter:  17 00:34:15   -15.140615c  -4.12  -3.54   +4.6,+0.0,+0.0
# iter:  18 00:34:44   -15.140607c  -4.29  -3.79   +4.6,+0.0,+0.0
# iter:  19 00:35:13   -15.140621c  -4.44  -3.87   +4.6,+0.0,+0.0
# iter:  20 00:35:42   -15.140623c  -4.61  -3.90   +4.6,+0.0,+0.0
# iter:  21 00:36:11   -15.140617c  -4.77  -3.96   +4.6,+0.0,-0.0
# iter:  22 00:36:40   -15.140612c  -4.92  -4.20c  +4.6,+0.0,+0.0
# iter:  23 00:37:09   -15.140613c  -5.08  -4.37c  +4.6,+0.0,+0.0
# iter:  24 00:37:38   -15.140617c  -5.21  -4.42c  +4.6,+0.0,+0.0
# iter:  25 00:38:08   -15.140617c  -5.36  -4.44c  +4.6,+0.0,+0.0
# iter:  26 00:38:37   -15.140617c  -5.49  -4.50c  +4.6,+0.0,-0.0
# iter:  27 00:39:06   -15.140616c  -5.64  -4.64c  +4.6,+0.0,+0.0
# iter:  28 00:39:35   -15.140616c  -5.77  -4.74c  +4.6,+0.0,-0.0
# iter:  29 00:40:04   -15.140616c  -5.91  -4.80c  +4.6,+0.0,-0.0
# iter:  30 00:40:34   -15.140617c  -6.04  -4.81c  +4.6,+0.0,-0.0
# iter:  31 00:41:03   -15.140617c  -6.18  -5.12c  +4.6,+0.0,-0.0
# iter:  32 00:41:32   -15.140617c  -6.31  -5.19c  +4.6,+0.0,-0.0
# iter:  33 00:42:01   -15.140616c  -6.45  -5.43c  +4.6,+0.0,-0.0
# iter:  34 00:42:31   -15.140616c  -6.57  -5.57c  +4.6,+0.0,+0.0
# iter:  35 00:43:00   -15.140617c  -6.70  -5.61c  +4.6,+0.0,+0.0
# iter:  36 00:43:29   -15.140617c  -6.82  -5.74c  +4.6,+0.0,-0.0
# iter:  37 00:43:58   -15.140617c  -6.94  -5.78c  +4.6,+0.0,-0.0
# iter:  38 00:44:27   -15.140617c  -7.06  -5.97c  +4.6,+0.0,-0.0
# iter:  39 00:44:56   -15.140617c  -7.18  -6.15c  +4.6,+0.0,+0.0
# iter:  40 00:45:26   -15.140617c  -7.30  -6.27c  +4.6,+0.0,-0.0
# iter:  41 00:45:55   -15.140617c  -7.42c -6.38c  +4.6,+0.0,-0.0
scf_steps: 41
energies:  # eV
  coulomb:         -12.514494
  zero:              0.094172
  xc:              -17.152569
  external:          0.000000
  kinetic:          14.432791
  spinorbit:         0.000000
  entropy:          -0.001035
  total:           -15.141134
  extrapolated:    -15.140617

dipole moment: [-5.218150, -9.038101, -11.248113]  # |e|*Ang

total magnetic moment: [4.570921, 0.010210, -0.000000]

local magnetic moments: [
  [ 4.328884, -0.000315,  0.000000],  # Mn 0
  [ 0.006982, -0.033255, -0.000000],  # I  1
  [ 0.006981, -0.033255, -0.000000]]  # I  2


Fermi level: -1.228 eV

kpt = [-0.429, -0.429, 0.000], weight = 0.005:
  Band      eig [eV]   occ [0-1]
     0       -82.175       1.000
   ...
    21        -4.007       1.000
    22        -3.966       1.000
    23        -3.873       1.000
    24        -3.650       1.000
    25        -3.547       1.000
    26        -3.520       1.000
    27        -2.205       1.000
    28        -2.073       1.000
    29        -0.448       0.000
    30        -0.212       0.000
    31        -0.137       0.000
    32         0.502       0.000
    33         0.521       0.000
    34         1.416       0.000
    35         2.370       0.000
    36         3.118       0.000
   ...
    41         5.369       0.000

kpt = [-0.429, -0.357, 0.000], weight = 0.005:
  Band      eig [eV]   occ [0-1]
     0       -82.175       1.000
   ...
    21        -3.943       1.000
    22        -3.876       1.000
    23        -3.800       1.000
    24        -3.727       1.000
    25        -3.526       1.000
    26        -3.431       1.000
    27        -2.286       1.000
    28        -1.974       0.999
    29        -0.458       0.000
    30        -0.233       0.000
    31        -0.143       0.000
    32         0.476       0.000
    33         0.570       0.000
    34         1.352       0.000
    35         2.315       0.000
    36         2.915       0.000
   ...
    41         5.308       0.000

kpt = [-0.429, -0.286, 0.000], weight = 0.005:
  Band      eig [eV]   occ [0-1]
     0       -82.175       1.000
   ...
    21        -4.011       1.000
    22        -3.850       1.000
    23        -3.759       1.000
    24        -3.720       1.000
    25        -3.471       1.000
    26        -3.373       1.000
    27        -2.279       1.000
    28        -1.991       1.000
    29        -0.408       0.000
    30        -0.270       0.000
    31        -0.149       0.000
    32         0.439       0.000
    33         0.570       0.000
    34         1.469       0.000
    35         2.233       0.000
    36         3.140       0.000
   ...
    41         4.976       0.000
(only showing first 3 out of 196 k-points)

Gap: 1.291 eV
Transition (v -> c):
  (s=0, k=132, n=28, [0.21, 0.00, 0.00]) -> (s=0, k=188, n=29, [0.50, 0.00, 0.00])
# Writing to Band_Conv/gsq-72.gpw (mode='')

---

timing:  # [seconds]
  Total: 1215.886  # ━━━━━━━━━━━━━━━━━━━━━━━━━━━━━━━━━━━━━━━━━━━━━━━━━━━━━━━━
  Init:    19.032  # ━
  SCF:   1196.186  # ━━━━━━━━━━━━━━━━━━━━━━━━━━━━━━━━━━━━━━━━━━━━━━━━━━━━━━━

Max RSS: 2436.301  # MiB
