#  __  _  _
# | _ |_)|_||  |
# |__||  | ||/\| - 24.1.0

User:   s194113@n-62-29-34
Date:   Mon May  6 22:43:04 2024
Arch:   x86_64
Pid:    15878
CWD:    /work3/s194113/10302/10302_NM/MnI2
Python: 3.8.5
gpaw:   /zhome/87/8/147075/venv-name/gpaw/gpaw (10808453a8)
_gpaw:  /zhome/87/8/147075/venv-name/gpaw/
        _gpaw.cpython-38-x86_64-linux-gnu.so (10808453a8)
ase:    /zhome/87/8/147075/venv-name/ase/ase (version 3.23.0b1-c36115a2db)
numpy:  /zhome/87/8/147075/venv-name/lib/python3.8/site-packages/numpy (version 1.24.4)
scipy:  /zhome/87/8/147075/venv-name/lib/python3.8/site-packages/scipy (version 1.10.1)
libxc:  4.3.4
units:  Angstrom and eV
cores: 18
OpenMP: False
OMP_NUM_THREADS: 1

---
input parameters:
  kpts: 
    density: 8.0
    gamma: True
  magmoms: [[4.4079912, 0, 0], [0.08032672, 0, 0], [0.08032672, 0, 0]]
  mixer: 
    backend: 'pulay'
    beta: 0.05
    method: 'sum'
    nmaxold: 5
    weight: 100
  mode: 
    name: 'pw'
    ecut: 800.0
    qspiral: array([0.25581395, 0.25581395, 0.        ])
  parallel: 
    kpt: None
    domain: 1
    band: 1
    order: 'kdb'
    stridebands: False
    augment_grids: False
    sl_auto: False
    sl_default: None
    sl_diagonalize: None
    sl_inverse_cholesky: None
    sl_lcao: None
    sl_lrtddft: None
    use_elpa: False
    elpasolver: '2stage'
    buffer_size: None
    gpu: False
  symmetry: 
    point_group: False
    time_reversal: False
  xc: 
    name: 'LDA'

#                        
#                        
#                        
#                        
#              I         
#                        
#                        
#        Mn              
#          I             
#                        
#                        
#                        
#                        
#                        

atoms: [  # symbols, positions [Ang] and initial magnetic moments
  [ Mn, [   0.000000,    0.000000,    7.649535], [ 4.408,  0.000,  0.000]], # 0
  [  I, [   2.082858,    1.202539,    9.299069], [ 0.080,  0.000,  0.000]], # 1
  [  I, [   0.000000,    2.405077,    6.000000], [ 0.080,  0.000,  0.000]]] # 2

cell: [  # Ang
#     x            y            z
  [   4.165716,    0.000000,    0.000000],
  [  -2.082858,    3.607616,    0.000000],
  [   0.000000,    0.000000,   15.299069]]

periodic: [True      , True      , False     ]
lengths:  [  4.165716,   4.165716,  15.299069]  # Ang
angles:   [ 90.000000,  90.000000, 120.000000]

symmetry:
  number of symmetries: 1
  rotations: [
    [[ 1,  0,  0], [ 0,  1,  0], [ 0,  0,  1]]]

bz sampling:
  number of bz points: 196
  number of ibz points: 196
  monkhorst-pack size: [14, 14, 1]
  monkhorst-pack shift: [0.03571428571428571, 0.03571428571428571, 0.0]
  points and weights: [
    [[ -0.42857143,  -0.42857143,   0.00000000], 0.00510204],  # 0
    [[ -0.42857143,  -0.35714286,   0.00000000], 0.00510204],  # 1
    [[ -0.42857143,  -0.28571429,   0.00000000], 0.00510204],  # 2
    [[ -0.42857143,  -0.21428571,   0.00000000], 0.00510204],  # 3
    [[ -0.42857143,  -0.14285714,   0.00000000], 0.00510204],  # 4
    [[ -0.42857143,  -0.07142857,   0.00000000], 0.00510204],  # 5
    [[ -0.42857143,   0.00000000,   0.00000000], 0.00510204],  # 6
    [[ -0.42857143,   0.07142857,   0.00000000], 0.00510204],  # 7
    [[ -0.42857143,   0.14285714,   0.00000000], 0.00510204],  # 8
    [[ -0.42857143,   0.21428571,   0.00000000], 0.00510204],  # 9
    # ...
    [[  0.50000000,   0.50000000,   0.00000000], 0.00510204]]  # 195

plane wave coefficients: 11927
cutoff: 800.0 eV

spin-components: 4  # (non-collinear spins)
bands: 42
valence electrons: 29.0
spin-degeneracy: 1
dtype: complex128

memory:
    wave functions: 3_105_768_960  # bytes  (172_542_720 per core)

parallelization:
    kpt:    18
    domain: 1
    band:   1

density:
  components: 4
  grid points: [ 28  28 100]
  charge: 0.0  # |e|

potential:
  grid points: [ 28  28 100]

species:
  Mn:
    name: Manganese
    id: 0d715a8018be061a6e9ea6f2d364ac92
    Z: 25.0
    valence: 15
    core: 10
    charge: 0.0
    file: /zhome/86/d/1666/PAW/gpaw-setups-0.9.20000/Mn.LDA.gz
    compensation charges: {type: gauss,
                           rc: 0.38,
                           lmax: 2}
    cutoffs: {filter: 2.14,
              core: 0.86}
    valence states:
      #              energy  rcut
      - 3s(2.00)   -85.387   1.275
      - 4s(2.00)    -5.282   1.275
      - 3p(6.00)   -54.493   1.281
      - 4p(0.00)    -1.471   1.281
      - 3d(5.00)    -7.009   1.138
      -  d          20.203   1.138
  
    # Using partial waves for Mn as LCAO basis

  I:
    name: Iodine
    id: b559721c0c096a7b4c8fc0e0f4de5cf4
    Z: 53.0
    valence: 7
    core: 46
    charge: 0.0
    file: /zhome/86/d/1666/PAW/gpaw-setups-0.9.20000/I.LDA.gz
    compensation charges: {type: gauss,
                           rc: 0.37,
                           lmax: 2}
    cutoffs: {filter: 2.06,
              core: 2.90}
    valence states:
      #              energy  rcut
      - 5s(2.00)   -17.626   1.164
      - 5p(5.00)    -7.241   1.164
      -  s           9.585   1.164
      -  p          19.970   1.164
      -  d           0.000   1.164
  
    # Using partial waves for I as LCAO basis

Reference energy: -418222.442431  # eV

eigensolver:
  name: 'Davidson'
  niter: 2
  converge_bands: 'occupied'
Density mixing:
  Method: sum
  Backend: pulay
  Linear mixing parameter: 0.05
  old densities: 5
  Damping of long wavelength oscillations: 100
occupation numbers:
  Fermi-Dirac:
    width: 0.1000  # eV
  

poisson solver:
  ecut: 6400.0  # eV

xc functional:
  name: None

convergence criteria:
- Maximum [total energy] change in last 3 cyles: 0.0005 eV / valence electron
- Maximum integral of absolute [dens]ity change: 0.0001 electrons / valence electron
- Maximum integral of absolute [eigenst]ate change: 4e-08 eV^2 / valence electron
maximum number of iterations: 333

#      iter     time        total  log10-change:
#                          energy   eigst   dens
# iter:   1 22:43:51   -14.900515                  +4.6,+0.0,+0.0
# iter:   2 22:44:20   -15.170484   -0.24  -1.49   +4.2,-0.0,-0.0
# iter:   3 22:44:49   -15.140521   -0.83  -1.52   +4.2,-0.0,+0.0
# iter:   4 22:45:19   -15.156365   -1.11  -1.56   +4.3,-0.0,+0.0
# iter:   5 22:45:48   -15.233292   -1.41  -1.76   +4.5,+0.0,+0.0
# iter:   6 22:46:17   -15.173042   -1.73  -2.18   +4.5,+0.0,+0.0
# iter:   7 22:46:46   -15.148394   -1.67  -2.28   +4.5,+0.0,+0.0
# iter:   8 22:47:16   -15.142391   -2.23  -2.26   +4.4,+0.0,+0.0
# iter:   9 22:47:45   -15.141545c  -2.47  -2.89   +4.4,+0.0,+0.0
# iter:  10 22:48:14   -15.141716c  -2.71  -2.95   +4.5,+0.0,+0.0
# iter:  11 22:48:44   -15.141721c  -2.88  -3.09   +4.5,+0.0,+0.0
# iter:  12 22:49:13   -15.141629c  -3.10  -3.04   +4.5,+0.0,+0.0
# iter:  13 22:49:42   -15.141644c  -3.30  -3.61   +4.5,+0.0,+0.0
# iter:  14 22:50:11   -15.141675c  -3.48  -3.63   +4.5,+0.0,+0.0
# iter:  15 22:50:40   -15.141681c  -3.66  -3.68   +4.5,+0.0,+0.0
# iter:  16 22:51:09   -15.141706c  -3.83  -3.79   +4.5,+0.0,+0.0
# iter:  17 22:51:38   -15.141712c  -4.01  -3.81   +4.5,+0.0,+0.0
# iter:  18 22:52:08   -15.141708c  -4.18  -3.83   +4.5,+0.0,+0.0
# iter:  19 22:52:36   -15.141698c  -4.32  -3.87   +4.5,+0.0,+0.0
# iter:  20 22:53:06   -15.141698c  -4.50  -4.15c  +4.5,+0.0,+0.0
# iter:  21 22:53:35   -15.141699c  -4.65  -4.24c  +4.5,+0.0,+0.0
# iter:  22 22:54:04   -15.141703c  -4.79  -4.29c  +4.5,+0.0,+0.0
# iter:  23 22:54:33   -15.141704c  -4.94  -4.52c  +4.5,+0.0,+0.0
# iter:  24 22:55:02   -15.141703c  -5.09  -4.60c  +4.5,+0.0,+0.0
# iter:  25 22:55:31   -15.141706c  -5.22  -4.63c  +4.5,+0.0,+0.0
# iter:  26 22:56:00   -15.141704c  -5.38  -4.62c  +4.5,+0.0,+0.0
# iter:  27 22:56:29   -15.141704c  -5.53  -4.92c  +4.5,+0.0,+0.0
# iter:  28 22:56:58   -15.141704c  -5.67  -4.96c  +4.5,+0.0,+0.0
# iter:  29 22:57:27   -15.141703c  -5.81  -5.14c  +4.5,+0.0,+0.0
# iter:  30 22:57:56   -15.141703c  -5.95  -5.15c  +4.5,+0.0,+0.0
# iter:  31 22:58:25   -15.141704c  -6.09  -5.22c  +4.5,+0.0,+0.0
# iter:  32 22:58:54   -15.141703c  -6.22  -5.33c  +4.5,+0.0,+0.0
# iter:  33 22:59:23   -15.141703c  -6.35  -5.42c  +4.5,+0.0,+0.0
# iter:  34 22:59:52   -15.141704c  -6.48  -5.59c  +4.5,+0.0,+0.0
# iter:  35 23:00:21   -15.141704c  -6.61  -5.71c  +4.5,+0.0,+0.0
# iter:  36 23:00:51   -15.141704c  -6.73  -5.85c  +4.5,+0.0,+0.0
# iter:  37 23:01:20   -15.141704c  -6.86  -5.98c  +4.5,+0.0,+0.0
# iter:  38 23:01:49   -15.141704c  -6.99  -6.02c  +4.5,+0.0,+0.0
# iter:  39 23:02:18   -15.141704c  -7.11  -6.13c  +4.5,+0.0,+0.0
# iter:  40 23:02:47   -15.141704c  -7.23  -6.13c  +4.5,+0.0,+0.0
# iter:  41 23:03:16   -15.141704c  -7.35  -6.16c  +4.5,+0.0,+0.0
# iter:  42 23:03:45   -15.141704c  -7.47c -6.30c  +4.5,+0.0,+0.0
scf_steps: 42
energies:  # eV
  coulomb:         -12.477742
  zero:              0.094345
  xc:              -17.144064
  external:          0.000000
  kinetic:          14.386250
  spinorbit:         0.000000
  entropy:          -0.000984
  total:           -15.142196
  extrapolated:    -15.141704

dipole moment: [-5.073797, -8.788073, -10.466197]  # |e|*Ang

total magnetic moment: [4.469708, 0.006691, 0.000000]

local magnetic moments: [
  [ 4.325226, -0.000202,  0.000000],  # Mn 0
  [-0.000794, -0.021731,  0.000000],  # I  1
  [-0.000795, -0.021731, -0.000000]]  # I  2


Fermi level: -1.218 eV

kpt = [-0.429, -0.429, 0.000], weight = 0.005:
  Band      eig [eV]   occ [0-1]
     0       -82.171       1.000
   ...
    21        -4.044       1.000
    22        -4.031       1.000
    23        -3.830       1.000
    24        -3.648       1.000
    25        -3.540       1.000
    26        -3.503       1.000
    27        -2.230       1.000
    28        -2.098       1.000
    29        -0.386       0.000
    30        -0.225       0.000
    31        -0.139       0.000
    32         0.488       0.000
    33         0.494       0.000
    34         1.532       0.000
    35         2.394       0.000
    36         3.358       0.000
   ...
    41         4.760       0.000

kpt = [-0.429, -0.357, 0.000], weight = 0.005:
  Band      eig [eV]   occ [0-1]
     0       -82.171       1.000
   ...
    21        -3.963       1.000
    22        -3.868       1.000
    23        -3.822       1.000
    24        -3.687       1.000
    25        -3.519       1.000
    26        -3.401       1.000
    27        -2.298       1.000
    28        -1.969       0.999
    29        -0.437       0.000
    30        -0.241       0.000
    31        -0.148       0.000
    32         0.457       0.000
    33         0.572       0.000
    34         1.395       0.000
    35         2.322       0.000
    36         2.986       0.000
   ...
    41         5.148       0.000

kpt = [-0.429, -0.286, 0.000], weight = 0.005:
  Band      eig [eV]   occ [0-1]
     0       -82.171       1.000
   ...
    21        -3.976       1.000
    22        -3.794       1.000
    23        -3.741       1.000
    24        -3.668       1.000
    25        -3.462       1.000
    26        -3.327       1.000
    27        -2.278       1.000
    28        -1.947       0.999
    29        -0.449       0.000
    30        -0.266       0.000
    31        -0.152       0.000
    32         0.442       0.000
    33         0.579       0.000
    34         1.419       0.000
    35         2.214       0.000
    36         2.997       0.000
   ...
    41         4.780       0.000
(only showing first 3 out of 196 k-points)

Gap: 1.365 eV
Transition (v -> c):
  (s=0, k=119, n=28, [0.14, 0.07, 0.00]) -> (s=0, k=188, n=29, [0.50, 0.00, 0.00])
# Writing to Band_Conv/gsq-67.gpw (mode='')

