#  __  _  _
# | _ |_)|_||  |
# |__||  | ||/\| - 24.1.0

User:   s194113@n-62-29-25
Date:   Wed May  1 20:26:09 2024
Arch:   x86_64
Pid:    9729
CWD:    /work3/s194113/10302/10302_NM/MnI2
Python: 3.8.5
gpaw:   /zhome/87/8/147075/venv-name/gpaw/gpaw (10808453a8)
_gpaw:  /zhome/87/8/147075/venv-name/gpaw/
        _gpaw.cpython-38-x86_64-linux-gnu.so (10808453a8)
ase:    /zhome/87/8/147075/venv-name/ase/ase (version 3.23.0b1-c36115a2db)
numpy:  /zhome/87/8/147075/venv-name/lib/python3.8/site-packages/numpy (version 1.24.4)
scipy:  /zhome/87/8/147075/venv-name/lib/python3.8/site-packages/scipy (version 1.10.1)
libxc:  4.3.4
units:  Angstrom and eV
cores: 12
OpenMP: False
OMP_NUM_THREADS: 1

---
input parameters:
  kpts: 
    density: 8.0
    gamma: True
  magmoms: [[4.4079912, 0, 0], [0.08032672, 0, 0], [0.08032672, 0, 0]]
  mixer: 
    backend: 'pulay'
    beta: 0.05
    method: 'sum'
    nmaxold: 5
    weight: 100
  mode: 
    name: 'pw'
    ecut: 800.0
    qspiral: array([0.19444444, 0.        , 0.        ])
  parallel: 
    kpt: None
    domain: 1
    band: 1
    order: 'kdb'
    stridebands: False
    augment_grids: False
    sl_auto: False
    sl_default: None
    sl_diagonalize: None
    sl_inverse_cholesky: None
    sl_lcao: None
    sl_lrtddft: None
    use_elpa: False
    elpasolver: '2stage'
    buffer_size: None
    gpu: False
  symmetry: 
    point_group: False
    time_reversal: False
  xc: 
    name: 'LDA'

#                        
#                        
#                        
#                        
#              I         
#                        
#                        
#        Mn              
#          I             
#                        
#                        
#                        
#                        
#                        

atoms: [  # symbols, positions [Ang] and initial magnetic moments
  [ Mn, [   0.000000,    0.000000,    7.649535], [ 4.408,  0.000,  0.000]], # 0
  [  I, [   2.082858,    1.202539,    9.299069], [ 0.080,  0.000,  0.000]], # 1
  [  I, [   0.000000,    2.405077,    6.000000], [ 0.080,  0.000,  0.000]]] # 2

cell: [  # Ang
#     x            y            z
  [   4.165716,    0.000000,    0.000000],
  [  -2.082858,    3.607616,    0.000000],
  [   0.000000,    0.000000,   15.299069]]

periodic: [True      , True      , False     ]
lengths:  [  4.165716,   4.165716,  15.299069]  # Ang
angles:   [ 90.000000,  90.000000, 120.000000]

symmetry:
  number of symmetries: 1
  rotations: [
    [[ 1,  0,  0], [ 0,  1,  0], [ 0,  0,  1]]]

bz sampling:
  number of bz points: 196
  number of ibz points: 196
  monkhorst-pack size: [14, 14, 1]
  monkhorst-pack shift: [0.03571428571428571, 0.03571428571428571, 0.0]
  points and weights: [
    [[ -0.42857143,  -0.42857143,   0.00000000], 0.00510204],  # 0
    [[ -0.42857143,  -0.35714286,   0.00000000], 0.00510204],  # 1
    [[ -0.42857143,  -0.28571429,   0.00000000], 0.00510204],  # 2
    [[ -0.42857143,  -0.21428571,   0.00000000], 0.00510204],  # 3
    [[ -0.42857143,  -0.14285714,   0.00000000], 0.00510204],  # 4
    [[ -0.42857143,  -0.07142857,   0.00000000], 0.00510204],  # 5
    [[ -0.42857143,   0.00000000,   0.00000000], 0.00510204],  # 6
    [[ -0.42857143,   0.07142857,   0.00000000], 0.00510204],  # 7
    [[ -0.42857143,   0.14285714,   0.00000000], 0.00510204],  # 8
    [[ -0.42857143,   0.21428571,   0.00000000], 0.00510204],  # 9
    # ...
    [[  0.50000000,   0.50000000,   0.00000000], 0.00510204]]  # 195

plane wave coefficients: 11927
cutoff: 800.0 eV

spin-components: 4  # (non-collinear spins)
bands: 42
valence electrons: 29.0
spin-degeneracy: 1
dtype: complex128

memory:
    wave functions: 3_105_768_960  # bytes  (258_814_080 per core)

parallelization:
    kpt:    12
    domain: 1
    band:   1

density:
  components: 4
  grid points: [ 28  28 100]
  charge: 0.0  # |e|

potential:
  grid points: [ 28  28 100]

species:
  Mn:
    name: Manganese
    id: 0d715a8018be061a6e9ea6f2d364ac92
    Z: 25.0
    valence: 15
    core: 10
    charge: 0.0
    file: /zhome/86/d/1666/PAW/gpaw-setups-0.9.20000/Mn.LDA.gz
    compensation charges: {type: gauss,
                           rc: 0.38,
                           lmax: 2}
    cutoffs: {filter: 2.14,
              core: 0.86}
    valence states:
      #              energy  rcut
      - 3s(2.00)   -85.387   1.275
      - 4s(2.00)    -5.282   1.275
      - 3p(6.00)   -54.493   1.281
      - 4p(0.00)    -1.471   1.281
      - 3d(5.00)    -7.009   1.138
      -  d          20.203   1.138
  
    # Using partial waves for Mn as LCAO basis

  I:
    name: Iodine
    id: b559721c0c096a7b4c8fc0e0f4de5cf4
    Z: 53.0
    valence: 7
    core: 46
    charge: 0.0
    file: /zhome/86/d/1666/PAW/gpaw-setups-0.9.20000/I.LDA.gz
    compensation charges: {type: gauss,
                           rc: 0.37,
                           lmax: 2}
    cutoffs: {filter: 2.06,
              core: 2.90}
    valence states:
      #              energy  rcut
      - 5s(2.00)   -17.626   1.164
      - 5p(5.00)    -7.241   1.164
      -  s           9.585   1.164
      -  p          19.970   1.164
      -  d           0.000   1.164
  
    # Using partial waves for I as LCAO basis

Reference energy: -418222.442431  # eV

eigensolver:
  name: 'Davidson'
  niter: 2
  converge_bands: 'occupied'
Density mixing:
  Method: sum
  Backend: pulay
  Linear mixing parameter: 0.05
  old densities: 5
  Damping of long wavelength oscillations: 100
occupation numbers:
  Fermi-Dirac:
    width: 0.1000  # eV
  

poisson solver:
  ecut: 6400.0  # eV

xc functional:
  name: None

convergence criteria:
- Maximum [total energy] change in last 3 cyles: 0.0005 eV / valence electron
- Maximum integral of absolute [dens]ity change: 0.0001 electrons / valence electron
- Maximum integral of absolute [eigenst]ate change: 4e-08 eV^2 / valence electron
maximum number of iterations: 333

#      iter     time        total  log10-change:
#                          energy   eigst   dens
# iter:   1 20:27:19   -15.171915                  +4.6,+0.0,+0.0
# iter:   2 20:28:03   -15.190913   -0.63  -1.49   +4.6,-0.0,-0.0
# iter:   3 20:28:48   -15.125596   -1.11  -1.52   +4.6,+0.0,-0.0
# iter:   4 20:29:32   -15.132536   -1.37  -1.58   +4.7,+0.0,+0.0
# iter:   5 20:30:17   -15.181617   -1.65  -1.79   +4.8,+0.0,+0.0
# iter:   6 20:31:01   -15.152569   -2.00  -2.26   +4.9,+0.0,+0.0
# iter:   7 20:31:46   -15.157969   -1.75  -2.29   +4.9,+0.0,+0.0
# iter:   8 20:32:30   -15.132201   -2.25  -2.37   +4.8,+0.0,-0.0
# iter:   9 20:33:15   -15.134295   -2.77  -2.79   +4.8,+0.0,+0.0
# iter:  10 20:33:59   -15.132379c  -2.92  -2.74   +4.8,+0.0,+0.0
# iter:  11 20:34:44   -15.132342c  -3.32  -2.82   +4.8,+0.0,+0.0
# iter:  12 20:35:28   -15.134015c  -3.31  -2.86   +4.8,+0.0,-0.0
# iter:  13 20:36:12   -15.133587c  -3.60  -2.88   +4.8,+0.0,+0.0
# iter:  14 20:36:57   -15.132245c  -3.34  -2.90   +4.8,+0.0,+0.0
# iter:  15 20:37:41   -15.132666c  -3.87  -3.09   +4.8,+0.0,+0.0
# iter:  16 20:38:25   -15.132092c  -3.84  -3.08   +4.8,+0.0,+0.0
# iter:  17 20:39:09   -15.132093c  -4.41  -3.27   +4.8,+0.0,+0.0
# iter:  18 20:39:54   -15.132281c  -4.34  -3.30   +4.8,+0.0,+0.0
# iter:  19 20:40:38   -15.132171c  -4.54  -3.57   +4.8,+0.0,+0.0
# iter:  20 20:41:22   -15.132177c  -4.73  -3.80   +4.8,+0.0,+0.0
# iter:  21 20:42:07   -15.132171c  -4.92  -3.90   +4.8,+0.0,+0.0
# iter:  22 20:42:51   -15.132176c  -5.10  -4.10c  +4.8,+0.0,+0.0
# iter:  23 20:43:35   -15.132173c  -5.27  -4.20c  +4.8,+0.0,+0.0
# iter:  24 20:44:19   -15.132175c  -5.42  -4.27c  +4.8,+0.0,+0.0
# iter:  25 20:45:04   -15.132177c  -5.58  -4.29c  +4.8,+0.0,+0.0
# iter:  26 20:45:48   -15.132177c  -5.73  -4.32c  +4.8,+0.0,+0.0
# iter:  27 20:46:32   -15.132182c  -5.86  -4.40c  +4.8,+0.0,+0.0
# iter:  28 20:47:16   -15.132180c  -5.67  -4.39c  +4.8,+0.0,+0.0
# iter:  29 20:48:00   -15.132180c  -5.90  -4.20c  +4.8,+0.0,+0.0
# iter:  30 20:48:44   -15.132183c  -6.29  -4.60c  +4.8,+0.0,+0.0
# iter:  31 20:49:29   -15.132180c  -6.38  -4.64c  +4.8,+0.0,+0.0
# iter:  32 20:50:13   -15.132186c  -6.36  -4.70c  +4.8,+0.0,+0.0
# iter:  33 20:50:57   -15.132182c  -6.63  -4.66c  +4.8,+0.0,+0.0
# iter:  34 20:51:41   -15.132181c  -6.87  -4.94c  +4.8,+0.0,+0.0
# iter:  35 20:52:25   -15.132183c  -6.85  -4.93c  +4.8,+0.0,+0.0
# iter:  36 20:53:09   -15.132182c  -7.15  -5.01c  +4.8,+0.0,+0.0
# iter:  37 20:53:53   -15.132180c  -7.21  -5.19c  +4.8,+0.0,+0.0
# iter:  38 20:54:37   -15.132182c  -7.32  -5.04c  +4.8,+0.0,+0.0
# iter:  39 20:55:21   -15.132182c  -7.63c -5.48c  +4.8,+0.0,+0.0
scf_steps: 39
energies:  # eV
  coulomb:         -12.776528
  zero:              0.093568
  xc:              -17.203898
  external:          0.000000
  kinetic:          14.755434
  spinorbit:         0.000000
  entropy:          -0.001516
  total:           -15.132940
  extrapolated:    -15.132182

dipole moment: [-5.526291, -9.800277, -13.364330]  # |e|*Ang

total magnetic moment: [4.843943, 0.011471, 0.000000]

local magnetic moments: [
  [ 4.346552, -0.000370,  0.000000],  # Mn 0
  [ 0.044863, -0.050222,  0.000000],  # I  1
  [ 0.062533, -0.024992,  0.000000]]  # I  2


Fermi level: -1.257 eV

kpt = [-0.429, -0.429, 0.000], weight = 0.005:
  Band      eig [eV]   occ [0-1]
     0       -82.200       1.000
   ...
    21        -3.981       1.000
    22        -3.887       1.000
    23        -3.850       1.000
    24        -3.703       1.000
    25        -3.611       1.000
    26        -3.540       1.000
    27        -2.132       1.000
    28        -2.083       1.000
    29        -0.547       0.001
    30        -0.175       0.000
    31        -0.151       0.000
    32         0.478       0.000
    33         0.603       0.000
    34         1.331       0.000
    35         2.334       0.000
    36         3.008       0.000
   ...
    41         5.294       0.000

kpt = [-0.429, -0.357, 0.000], weight = 0.005:
  Band      eig [eV]   occ [0-1]
     0       -82.200       1.000
   ...
    21        -4.102       1.000
    22        -3.943       1.000
    23        -3.828       1.000
    24        -3.661       1.000
    25        -3.575       1.000
    26        -3.499       1.000
    27        -2.221       1.000
    28        -2.146       1.000
    29        -0.425       0.000
    30        -0.187       0.000
    31        -0.150       0.000
    32         0.426       0.000
    33         0.539       0.000
    34         1.579       0.000
    35         2.435       0.000
    36         3.435       0.000
   ...
    41         4.958       0.000

kpt = [-0.429, -0.286, 0.000], weight = 0.005:
  Band      eig [eV]   occ [0-1]
     0       -82.200       1.000
   ...
    21        -4.138       1.000
    22        -3.984       1.000
    23        -3.805       1.000
    24        -3.670       1.000
    25        -3.549       1.000
    26        -3.458       1.000
    27        -2.331       1.000
    28        -2.142       1.000
    29        -0.333       0.000
    30        -0.208       0.000
    31        -0.159       0.000
    32         0.371       0.000
    33         0.524       0.000
    34         1.794       0.000
    35         2.584       0.000
    36         3.673       0.000
   ...
    41         5.092       0.000
(only showing first 3 out of 196 k-points)

Gap: 0.945 eV
Transition (v -> c):
  (s=0, k=90, n=28, [0.00, 0.00, 0.00]) -> (s=0, k=188, n=29, [0.50, 0.00, 0.00])
# Writing to Band_Conv/gsq-14.gpw (mode='')

---

timing:  # [seconds]
  Total: 3446.571  # ━━━━━━━━━━━━━━━━━━━━━━━━━━━━━━━━━━━━━━━━━━━━━━━━━━━━━━━━
  Init:    27.616  # ╸
  SCF:   1724.643  # ━━━━━━━━━━━━━━━━━━━━━━━━━━━━

Max RSS: 1739.746  # MiB
