#  __  _  _
# | _ |_)|_||  |
# |__||  | ||/\| - 24.1.0

User:   s194113@n-62-29-25
Date:   Wed May  1 16:41:51 2024
Arch:   x86_64
Pid:    9729
CWD:    /work3/s194113/10302/10302_NM/MnI2
Python: 3.8.5
gpaw:   /zhome/87/8/147075/venv-name/gpaw/gpaw (10808453a8)
_gpaw:  /zhome/87/8/147075/venv-name/gpaw/
        _gpaw.cpython-38-x86_64-linux-gnu.so (10808453a8)
ase:    /zhome/87/8/147075/venv-name/ase/ase (version 3.23.0b1-c36115a2db)
numpy:  /zhome/87/8/147075/venv-name/lib/python3.8/site-packages/numpy (version 1.24.4)
scipy:  /zhome/87/8/147075/venv-name/lib/python3.8/site-packages/scipy (version 1.10.1)
libxc:  4.3.4
units:  Angstrom and eV
cores: 12
OpenMP: False
OMP_NUM_THREADS: 1

---
input parameters:
  kpts: 
    density: 8.0
    gamma: True
  magmoms: [[4.4079912, 0, 0], [0.08032672, 0, 0], [0.08032672, 0, 0]]
  mixer: 
    backend: 'pulay'
    beta: 0.05
    method: 'sum'
    nmaxold: 5
    weight: 100
  mode: 
    name: 'pw'
    ecut: 800.0
    qspiral: array([0.08333333, 0.        , 0.        ])
  parallel: 
    kpt: None
    domain: 1
    band: 1
    order: 'kdb'
    stridebands: False
    augment_grids: False
    sl_auto: False
    sl_default: None
    sl_diagonalize: None
    sl_inverse_cholesky: None
    sl_lcao: None
    sl_lrtddft: None
    use_elpa: False
    elpasolver: '2stage'
    buffer_size: None
    gpu: False
  symmetry: 
    point_group: False
    time_reversal: False
  xc: 
    name: 'LDA'

#                        
#                        
#                        
#                        
#              I         
#                        
#                        
#        Mn              
#          I             
#                        
#                        
#                        
#                        
#                        

atoms: [  # symbols, positions [Ang] and initial magnetic moments
  [ Mn, [   0.000000,    0.000000,    7.649535], [ 4.408,  0.000,  0.000]], # 0
  [  I, [   2.082858,    1.202539,    9.299069], [ 0.080,  0.000,  0.000]], # 1
  [  I, [   0.000000,    2.405077,    6.000000], [ 0.080,  0.000,  0.000]]] # 2

cell: [  # Ang
#     x            y            z
  [   4.165716,    0.000000,    0.000000],
  [  -2.082858,    3.607616,    0.000000],
  [   0.000000,    0.000000,   15.299069]]

periodic: [True      , True      , False     ]
lengths:  [  4.165716,   4.165716,  15.299069]  # Ang
angles:   [ 90.000000,  90.000000, 120.000000]

symmetry:
  number of symmetries: 1
  rotations: [
    [[ 1,  0,  0], [ 0,  1,  0], [ 0,  0,  1]]]

bz sampling:
  number of bz points: 196
  number of ibz points: 196
  monkhorst-pack size: [14, 14, 1]
  monkhorst-pack shift: [0.03571428571428571, 0.03571428571428571, 0.0]
  points and weights: [
    [[ -0.42857143,  -0.42857143,   0.00000000], 0.00510204],  # 0
    [[ -0.42857143,  -0.35714286,   0.00000000], 0.00510204],  # 1
    [[ -0.42857143,  -0.28571429,   0.00000000], 0.00510204],  # 2
    [[ -0.42857143,  -0.21428571,   0.00000000], 0.00510204],  # 3
    [[ -0.42857143,  -0.14285714,   0.00000000], 0.00510204],  # 4
    [[ -0.42857143,  -0.07142857,   0.00000000], 0.00510204],  # 5
    [[ -0.42857143,   0.00000000,   0.00000000], 0.00510204],  # 6
    [[ -0.42857143,   0.07142857,   0.00000000], 0.00510204],  # 7
    [[ -0.42857143,   0.14285714,   0.00000000], 0.00510204],  # 8
    [[ -0.42857143,   0.21428571,   0.00000000], 0.00510204],  # 9
    # ...
    [[  0.50000000,   0.50000000,   0.00000000], 0.00510204]]  # 195

plane wave coefficients: 11927
cutoff: 800.0 eV

spin-components: 4  # (non-collinear spins)
bands: 42
valence electrons: 29.0
spin-degeneracy: 1
dtype: complex128

memory:
    wave functions: 3_105_768_960  # bytes  (258_814_080 per core)

parallelization:
    kpt:    12
    domain: 1
    band:   1

density:
  components: 4
  grid points: [ 28  28 100]
  charge: 0.0  # |e|

potential:
  grid points: [ 28  28 100]

species:
  Mn:
    name: Manganese
    id: 0d715a8018be061a6e9ea6f2d364ac92
    Z: 25.0
    valence: 15
    core: 10
    charge: 0.0
    file: /zhome/86/d/1666/PAW/gpaw-setups-0.9.20000/Mn.LDA.gz
    compensation charges: {type: gauss,
                           rc: 0.38,
                           lmax: 2}
    cutoffs: {filter: 2.14,
              core: 0.86}
    valence states:
      #              energy  rcut
      - 3s(2.00)   -85.387   1.275
      - 4s(2.00)    -5.282   1.275
      - 3p(6.00)   -54.493   1.281
      - 4p(0.00)    -1.471   1.281
      - 3d(5.00)    -7.009   1.138
      -  d          20.203   1.138
  
    # Using partial waves for Mn as LCAO basis

  I:
    name: Iodine
    id: b559721c0c096a7b4c8fc0e0f4de5cf4
    Z: 53.0
    valence: 7
    core: 46
    charge: 0.0
    file: /zhome/86/d/1666/PAW/gpaw-setups-0.9.20000/I.LDA.gz
    compensation charges: {type: gauss,
                           rc: 0.37,
                           lmax: 2}
    cutoffs: {filter: 2.06,
              core: 2.90}
    valence states:
      #              energy  rcut
      - 5s(2.00)   -17.626   1.164
      - 5p(5.00)    -7.241   1.164
      -  s           9.585   1.164
      -  p          19.970   1.164
      -  d           0.000   1.164
  
    # Using partial waves for I as LCAO basis

Reference energy: -418222.442431  # eV

eigensolver:
  name: 'Davidson'
  niter: 2
  converge_bands: 'occupied'
Density mixing:
  Method: sum
  Backend: pulay
  Linear mixing parameter: 0.05
  old densities: 5
  Damping of long wavelength oscillations: 100
occupation numbers:
  Fermi-Dirac:
    width: 0.1000  # eV
  

poisson solver:
  ecut: 6400.0  # eV

xc functional:
  name: None

convergence criteria:
- Maximum [total energy] change in last 3 cyles: 0.0005 eV / valence electron
- Maximum integral of absolute [dens]ity change: 0.0001 electrons / valence electron
- Maximum integral of absolute [eigenst]ate change: 4e-08 eV^2 / valence electron
maximum number of iterations: 333

#      iter     time        total  log10-change:
#                          energy   eigst   dens
# iter:   1 16:43:00   -15.205161                  +4.6,+0.0,+0.0
# iter:   2 16:43:44   -15.184408   -0.75  -1.49   +4.8,-0.0,+0.0
# iter:   3 16:44:28   -15.108518   -1.16  -1.51   +4.8,+0.0,+0.0
# iter:   4 16:45:11   -15.120470   -1.49  -1.60   +4.8,+0.0,+0.0
# iter:   5 16:45:55   -15.158089   -1.74  -1.79   +4.9,+0.0,+0.0
# iter:   6 16:46:38   -15.126235   -1.95  -2.29   +5.0,+0.0,+0.0
# iter:   7 16:47:22   -15.124379   -2.26  -2.40   +5.0,+0.0,+0.0
# iter:   8 16:48:06   -15.140714   -2.41  -2.77   +4.9,+0.0,+0.0
# iter:   9 16:48:49   -15.131243   -2.84  -2.45   +4.9,+0.0,+0.0
# iter:  10 16:49:33   -15.123639   -2.75  -2.64   +5.0,+0.0,+0.0
# iter:  11 16:50:17   -15.124039c  -3.29  -3.48   +5.0,+0.0,+0.0
# iter:  12 16:51:00   -15.124395c  -3.44  -3.49   +5.0,+0.0,+0.0
# iter:  13 16:51:44   -15.124179c  -3.72  -3.24   +5.0,+0.0,-0.0
# iter:  14 16:52:28   -15.124071c  -3.84  -3.36   +5.0,+0.0,-0.0
# iter:  15 16:53:12   -15.124102c  -4.05  -3.72   +5.0,+0.0,-0.0
# iter:  16 16:53:56   -15.124091c  -4.23  -3.81   +5.0,+0.0,-0.0
# iter:  17 16:54:39   -15.124101c  -4.40  -4.04c  +5.0,+0.0,+0.0
# iter:  18 16:55:23   -15.124135c  -4.55  -4.33c  +5.0,+0.0,+0.0
# iter:  19 16:56:07   -15.124107c  -4.74  -4.00c  +5.0,+0.0,+0.0
# iter:  20 16:56:51   -15.124102c  -4.92  -4.43c  +5.0,+0.0,+0.0
# iter:  21 16:57:34   -15.124107c  -5.08  -4.65c  +5.0,+0.0,+0.0
# iter:  22 16:58:18   -15.124104c  -5.24  -4.57c  +5.0,+0.0,+0.0
# iter:  23 16:59:01   -15.124099c  -5.40  -4.79c  +5.0,+0.0,+0.0
# iter:  24 16:59:45   -15.124101c  -5.58  -4.88c  +5.0,+0.0,+0.0
# iter:  25 17:00:29   -15.124101c  -5.74  -5.24c  +5.0,+0.0,+0.0
# iter:  26 17:01:12   -15.124101c  -5.90  -5.30c  +5.0,+0.0,+0.0
# iter:  27 17:01:56   -15.124101c  -6.04  -5.32c  +5.0,+0.0,+0.0
# iter:  28 17:02:40   -15.124101c  -6.19  -5.33c  +5.0,+0.0,+0.0
# iter:  29 17:03:23   -15.124102c  -6.35  -5.40c  +5.0,+0.0,+0.0
# iter:  30 17:04:07   -15.124102c  -6.50  -5.50c  +5.0,+0.0,+0.0
# iter:  31 17:04:51   -15.124101c  -6.65  -5.55c  +5.0,+0.0,+0.0
# iter:  32 17:05:35   -15.124101c  -6.80  -5.80c  +5.0,+0.0,+0.0
# iter:  33 17:06:19   -15.124101c  -6.96  -5.80c  +5.0,+0.0,+0.0
# iter:  34 17:07:03   -15.124101c  -7.12  -5.83c  +5.0,+0.0,+0.0
# iter:  35 17:07:46   -15.124101c  -7.27  -5.94c  +5.0,+0.0,+0.0
# iter:  36 17:08:29   -15.124101c  -7.41c -6.04c  +5.0,+0.0,+0.0
scf_steps: 36
energies:  # eV
  coulomb:         -13.000363
  zero:              0.092871
  xc:              -17.244359
  external:          0.000000
  kinetic:          15.028834
  spinorbit:         0.000000
  entropy:          -0.002168
  total:           -15.125185
  extrapolated:    -15.124101

dipole moment: [-5.764727, -10.076648, -14.323871]  # |e|*Ang

total magnetic moment: [4.964754, 0.006441, 0.000000]

local magnetic moments: [
  [ 4.358888, -0.000204,  0.000000],  # Mn 0
  [ 0.077079, -0.028229,  0.000000],  # I  1
  [ 0.080865, -0.014100,  0.000000]]  # I  2


Fermi level: -1.257 eV

kpt = [-0.429, -0.429, 0.000], weight = 0.005:
  Band      eig [eV]   occ [0-1]
     0       -82.219       1.000
   ...
    21        -3.996       1.000
    22        -3.929       1.000
    23        -3.843       1.000
    24        -3.703       1.000
    25        -3.671       1.000
    26        -3.591       1.000
    27        -2.156       1.000
    28        -2.081       1.000
    29        -0.554       0.001
    30        -0.166       0.000
    31        -0.159       0.000
    32         0.452       0.000
    33         0.632       0.000
    34         1.357       0.000
    35         2.259       0.000
    36         3.262       0.000
   ...
    41         4.848       0.000

kpt = [-0.429, -0.357, 0.000], weight = 0.005:
  Band      eig [eV]   occ [0-1]
     0       -82.219       1.000
   ...
    21        -4.113       1.000
    22        -3.997       1.000
    23        -3.811       1.000
    24        -3.721       1.000
    25        -3.606       1.000
    26        -3.556       1.000
    27        -2.311       1.000
    28        -2.121       1.000
    29        -0.416       0.000
    30        -0.179       0.000
    31        -0.155       0.000
    32         0.384       0.000
    33         0.574       0.000
    34         1.636       0.000
    35         2.498       0.000
    36         3.703       0.000
   ...
    41         4.823       0.000

kpt = [-0.429, -0.286, 0.000], weight = 0.005:
  Band      eig [eV]   occ [0-1]
     0       -82.219       1.000
   ...
    21        -4.199       1.000
    22        -4.012       1.000
    23        -3.798       1.000
    24        -3.744       1.000
    25        -3.575       1.000
    26        -3.529       1.000
    27        -2.381       1.000
    28        -2.137       1.000
    29        -0.348       0.000
    30        -0.190       0.000
    31        -0.158       0.000
    32         0.356       0.000
    33         0.546       0.000
    34         1.775       0.000
    35         2.636       0.000
    36         3.693       0.000
   ...
    41         5.258       0.000
(only showing first 3 out of 196 k-points)

Gap: 0.903 eV
Transition (v -> c):
  (s=0, k=90, n=28, [0.00, 0.00, 0.00]) -> (s=0, k=188, n=29, [0.50, 0.00, 0.00])
# Writing to Band_Conv/gsq-06.gpw (mode='')

