#  __  _  _
# | _ |_)|_||  |
# |__||  | ||/\| - 24.1.0

User:   s194113@n-62-29-34
Date:   Mon May  6 13:22:16 2024
Arch:   x86_64
Pid:    15878
CWD:    /work3/s194113/10302/10302_NM/MnI2
Python: 3.8.5
gpaw:   /zhome/87/8/147075/venv-name/gpaw/gpaw (10808453a8)
_gpaw:  /zhome/87/8/147075/venv-name/gpaw/
        _gpaw.cpython-38-x86_64-linux-gnu.so (10808453a8)
ase:    /zhome/87/8/147075/venv-name/ase/ase (version 3.23.0b1-c36115a2db)
numpy:  /zhome/87/8/147075/venv-name/lib/python3.8/site-packages/numpy (version 1.24.4)
scipy:  /zhome/87/8/147075/venv-name/lib/python3.8/site-packages/scipy (version 1.10.1)
libxc:  4.3.4
units:  Angstrom and eV
cores: 18
OpenMP: False
OMP_NUM_THREADS: 1

---
input parameters:
  kpts: 
    density: 8.0
    gamma: True
  magmoms: [[4.4079912, 0, 0], [0.08032672, 0, 0], [0.08032672, 0, 0]]
  mixer: 
    backend: 'pulay'
    beta: 0.05
    method: 'sum'
    nmaxold: 5
    weight: 100
  mode: 
    name: 'pw'
    ecut: 800.0
    qspiral: array([0.46031746, 0.07936508, 0.        ])
  parallel: 
    kpt: None
    domain: 1
    band: 1
    order: 'kdb'
    stridebands: False
    augment_grids: False
    sl_auto: False
    sl_default: None
    sl_diagonalize: None
    sl_inverse_cholesky: None
    sl_lcao: None
    sl_lrtddft: None
    use_elpa: False
    elpasolver: '2stage'
    buffer_size: None
    gpu: False
  symmetry: 
    point_group: False
    time_reversal: False
  xc: 
    name: 'LDA'

#                        
#                        
#                        
#                        
#              I         
#                        
#                        
#        Mn              
#          I             
#                        
#                        
#                        
#                        
#                        

atoms: [  # symbols, positions [Ang] and initial magnetic moments
  [ Mn, [   0.000000,    0.000000,    7.649535], [ 4.408,  0.000,  0.000]], # 0
  [  I, [   2.082858,    1.202539,    9.299069], [ 0.080,  0.000,  0.000]], # 1
  [  I, [   0.000000,    2.405077,    6.000000], [ 0.080,  0.000,  0.000]]] # 2

cell: [  # Ang
#     x            y            z
  [   4.165716,    0.000000,    0.000000],
  [  -2.082858,    3.607616,    0.000000],
  [   0.000000,    0.000000,   15.299069]]

periodic: [True      , True      , False     ]
lengths:  [  4.165716,   4.165716,  15.299069]  # Ang
angles:   [ 90.000000,  90.000000, 120.000000]

symmetry:
  number of symmetries: 1
  rotations: [
    [[ 1,  0,  0], [ 0,  1,  0], [ 0,  0,  1]]]

bz sampling:
  number of bz points: 196
  number of ibz points: 196
  monkhorst-pack size: [14, 14, 1]
  monkhorst-pack shift: [0.03571428571428571, 0.03571428571428571, 0.0]
  points and weights: [
    [[ -0.42857143,  -0.42857143,   0.00000000], 0.00510204],  # 0
    [[ -0.42857143,  -0.35714286,   0.00000000], 0.00510204],  # 1
    [[ -0.42857143,  -0.28571429,   0.00000000], 0.00510204],  # 2
    [[ -0.42857143,  -0.21428571,   0.00000000], 0.00510204],  # 3
    [[ -0.42857143,  -0.14285714,   0.00000000], 0.00510204],  # 4
    [[ -0.42857143,  -0.07142857,   0.00000000], 0.00510204],  # 5
    [[ -0.42857143,   0.00000000,   0.00000000], 0.00510204],  # 6
    [[ -0.42857143,   0.07142857,   0.00000000], 0.00510204],  # 7
    [[ -0.42857143,   0.14285714,   0.00000000], 0.00510204],  # 8
    [[ -0.42857143,   0.21428571,   0.00000000], 0.00510204],  # 9
    # ...
    [[  0.50000000,   0.50000000,   0.00000000], 0.00510204]]  # 195

plane wave coefficients: 11927
cutoff: 800.0 eV

spin-components: 4  # (non-collinear spins)
bands: 42
valence electrons: 29.0
spin-degeneracy: 1
dtype: complex128

memory:
    wave functions: 3_105_768_960  # bytes  (172_542_720 per core)

parallelization:
    kpt:    18
    domain: 1
    band:   1

density:
  components: 4
  grid points: [ 28  28 100]
  charge: 0.0  # |e|

potential:
  grid points: [ 28  28 100]

species:
  Mn:
    name: Manganese
    id: 0d715a8018be061a6e9ea6f2d364ac92
    Z: 25.0
    valence: 15
    core: 10
    charge: 0.0
    file: /zhome/86/d/1666/PAW/gpaw-setups-0.9.20000/Mn.LDA.gz
    compensation charges: {type: gauss,
                           rc: 0.38,
                           lmax: 2}
    cutoffs: {filter: 2.14,
              core: 0.86}
    valence states:
      #              energy  rcut
      - 3s(2.00)   -85.387   1.275
      - 4s(2.00)    -5.282   1.275
      - 3p(6.00)   -54.493   1.281
      - 4p(0.00)    -1.471   1.281
      - 3d(5.00)    -7.009   1.138
      -  d          20.203   1.138
  
    # Using partial waves for Mn as LCAO basis

  I:
    name: Iodine
    id: b559721c0c096a7b4c8fc0e0f4de5cf4
    Z: 53.0
    valence: 7
    core: 46
    charge: 0.0
    file: /zhome/86/d/1666/PAW/gpaw-setups-0.9.20000/I.LDA.gz
    compensation charges: {type: gauss,
                           rc: 0.37,
                           lmax: 2}
    cutoffs: {filter: 2.06,
              core: 2.90}
    valence states:
      #              energy  rcut
      - 5s(2.00)   -17.626   1.164
      - 5p(5.00)    -7.241   1.164
      -  s           9.585   1.164
      -  p          19.970   1.164
      -  d           0.000   1.164
  
    # Using partial waves for I as LCAO basis

Reference energy: -418222.442431  # eV

eigensolver:
  name: 'Davidson'
  niter: 2
  converge_bands: 'occupied'
Density mixing:
  Method: sum
  Backend: pulay
  Linear mixing parameter: 0.05
  old densities: 5
  Damping of long wavelength oscillations: 100
occupation numbers:
  Fermi-Dirac:
    width: 0.1000  # eV
  

poisson solver:
  ecut: 6400.0  # eV

xc functional:
  name: None

convergence criteria:
- Maximum [total energy] change in last 3 cyles: 0.0005 eV / valence electron
- Maximum integral of absolute [dens]ity change: 0.0001 electrons / valence electron
- Maximum integral of absolute [eigenst]ate change: 4e-08 eV^2 / valence electron
maximum number of iterations: 333

#      iter     time        total  log10-change:
#                          energy   eigst   dens
# iter:   1 13:23:03   -14.769740                  +4.6,+0.0,+0.0
# iter:   2 13:23:34   -15.151101   -0.15  -1.49   +4.1,-0.0,-0.0
# iter:   3 13:24:03   -15.138186   -0.77  -1.52   +4.1,-0.0,-0.0
# iter:   4 13:24:33   -15.154594   -1.06  -1.56   +4.2,-0.0,-0.0
# iter:   5 13:25:03   -15.244660   -1.36  -1.76   +4.4,-0.0,-0.0
# iter:   6 13:25:33   -15.157257   -1.64  -2.16   +4.5,+0.0,-0.0
# iter:   7 13:26:03   -15.156292   -1.63  -2.29   +4.4,+0.0,-0.0
# iter:   8 13:26:33   -15.138976   -2.16  -2.17   +4.3,+0.0,-0.0
# iter:   9 13:27:02   -15.139054   -2.45  -2.92   +4.4,+0.0,+0.0
# iter:  10 13:27:32   -15.140393c  -2.64  -3.04   +4.4,+0.0,+0.0
# iter:  11 13:28:02   -15.139095c  -2.83  -2.94   +4.4,+0.0,+0.0
# iter:  12 13:28:32   -15.139190c  -3.06  -3.42   +4.4,+0.0,-0.0
# iter:  13 13:29:01   -15.139226c  -3.25  -3.50   +4.4,+0.0,-0.0
# iter:  14 13:29:31   -15.139336c  -3.42  -3.54   +4.4,+0.0,-0.0
# iter:  15 13:30:01   -15.139293c  -3.61  -3.56   +4.4,+0.0,-0.0
# iter:  16 13:30:31   -15.139288c  -3.78  -3.64   +4.4,+0.0,-0.0
# iter:  17 13:31:01   -15.139309c  -3.94  -3.70   +4.4,+0.0,-0.0
# iter:  18 13:31:30   -15.139290c  -4.11  -3.94   +4.4,+0.0,-0.0
# iter:  19 13:32:00   -15.139288c  -4.28  -4.13c  +4.4,+0.0,-0.0
# iter:  20 13:32:30   -15.139291c  -4.43  -4.13c  +4.4,+0.0,-0.0
# iter:  21 13:33:00   -15.139287c  -4.59  -4.32c  +4.4,+0.0,-0.0
# iter:  22 13:33:29   -15.139288c  -4.75  -4.32c  +4.4,+0.0,-0.0
# iter:  23 13:33:59   -15.139297c  -4.85  -4.33c  +4.4,+0.0,-0.0
# iter:  24 13:34:29   -15.139290c  -5.02  -4.39c  +4.4,+0.0,-0.0
# iter:  25 13:34:59   -15.139290c  -5.17  -4.71c  +4.4,+0.0,-0.0
# iter:  26 13:35:29   -15.139292c  -5.31  -4.80c  +4.4,+0.0,-0.0
# iter:  27 13:35:58   -15.139289c  -5.45  -4.89c  +4.4,+0.0,-0.0
# iter:  28 13:36:28   -15.139290c  -5.58  -4.86c  +4.4,+0.0,+0.0
# iter:  29 13:36:58   -15.139291c  -5.72  -5.36c  +4.4,+0.0,+0.0
# iter:  30 13:37:28   -15.139291c  -5.85  -5.35c  +4.4,+0.0,-0.0
# iter:  31 13:37:58   -15.139292c  -5.98  -5.24c  +4.4,+0.0,-0.0
# iter:  32 13:38:27   -15.139291c  -6.11  -4.94c  +4.4,+0.0,-0.0
# iter:  33 13:38:57   -15.139290c  -6.25  -5.37c  +4.4,+0.0,-0.0
# iter:  34 13:39:27   -15.139291c  -6.36  -5.44c  +4.4,+0.0,+0.0
# iter:  35 13:39:57   -15.139291c  -6.49  -5.17c  +4.4,+0.0,+0.0
# iter:  36 13:40:26   -15.139291c  -6.62  -5.75c  +4.4,+0.0,+0.0
# iter:  37 13:40:56   -15.139291c  -6.74  -5.77c  +4.4,+0.0,+0.0
# iter:  38 13:41:26   -15.139291c  -6.87  -5.53c  +4.4,+0.0,+0.0
# iter:  39 13:41:55   -15.139291c  -6.99  -5.86c  +4.4,+0.0,+0.0
# iter:  40 13:42:25   -15.139291c  -7.11  -6.02c  +4.4,+0.0,+0.0
# iter:  41 13:42:55   -15.139291c  -7.23  -6.52c  +4.4,+0.0,+0.0
# iter:  42 13:43:24   -15.139291c  -7.35  -6.58c  +4.4,+0.0,+0.0
# iter:  43 13:43:54   -15.139291c  -7.47c -6.66c  +4.4,+0.0,+0.0
scf_steps: 43
energies:  # eV
  coulomb:         -12.521003
  zero:              0.094262
  xc:              -17.151169
  external:          0.000000
  kinetic:          14.439234
  spinorbit:         0.000000
  entropy:          -0.001231
  total:           -15.139906
  extrapolated:    -15.139291

dipole moment: [-4.685952, -8.762113, -9.594282]  # |e|*Ang

total magnetic moment: [4.383890, 0.000867, 0.000000]

local magnetic moments: [
  [ 4.327557, -0.000013,  0.000000],  # Mn 0
  [-0.022290,  0.000000, -0.000000],  # I  1
  [ 0.021600, -0.005500, -0.000000]]  # I  2


Fermi level: -1.211 eV

kpt = [-0.429, -0.429, 0.000], weight = 0.005:
  Band      eig [eV]   occ [0-1]
     0       -82.174       1.000
   ...
    21        -4.108       1.000
    22        -3.877       1.000
    23        -3.813       1.000
    24        -3.750       1.000
    25        -3.465       1.000
    26        -3.413       1.000
    27        -2.245       1.000
    28        -2.074       1.000
    29        -0.351       0.000
    30        -0.279       0.000
    31        -0.143       0.000
    32         0.417       0.000
    33         0.560       0.000
    34         1.608       0.000
    35         2.323       0.000
    36         3.504       0.000
   ...
    41         4.918       0.000

kpt = [-0.429, -0.357, 0.000], weight = 0.005:
  Band      eig [eV]   occ [0-1]
     0       -82.174       1.000
   ...
    21        -3.978       1.000
    22        -3.819       1.000
    23        -3.706       1.000
    24        -3.650       1.000
    25        -3.429       1.000
    26        -3.321       1.000
    27        -2.322       1.000
    28        -1.964       0.999
    29        -0.402       0.000
    30        -0.262       0.000
    31        -0.147       0.000
    32         0.393       0.000
    33         0.567       0.000
    34         1.571       0.000
    35         2.312       0.000
    36         3.165       0.000
   ...
    41         4.995       0.000

kpt = [-0.429, -0.286, 0.000], weight = 0.005:
  Band      eig [eV]   occ [0-1]
     0       -82.174       1.000
   ...
    21        -3.921       1.000
    22        -3.677       1.000
    23        -3.576       1.000
    24        -3.566       1.000
    25        -3.410       1.000
    26        -3.215       1.000
    27        -2.380       1.000
    28        -1.915       0.999
    29        -0.418       0.000
    30        -0.226       0.000
    31        -0.187       0.000
    32         0.333       0.000
    33         0.560       0.000
    34         1.680       0.000
    35         2.455       0.000
    36         3.115       0.000
   ...
    41         4.963       0.000
(only showing first 3 out of 196 k-points)

Gap: 1.206 eV
Transition (v -> c):
  (s=0, k=90, n=28, [0.00, 0.00, 0.00]) -> (s=0, k=90, n=29, [0.00, 0.00, 0.00])
# Writing to Band_Conv/gsq-41.gpw (mode='')

---

timing:  # [seconds]
  Total: 2483.096  # ━━━━━━━━━━━━━━━━━━━━━━━━━━━━━━━━━━━━━━━━━━━━━━━━━━━━━━━━
  Init:    19.115  # ╸
  SCF:   1278.228  # ━━━━━━━━━━━━━━━━━━━━━━━━━━━━━

Max RSS: 1672.055  # MiB
