#  __  _  _
# | _ |_)|_||  |
# |__||  | ||/\| - 24.1.0

User:   s194113@n-62-29-25
Date:   Thu May  2 07:24:45 2024
Arch:   x86_64
Pid:    9729
CWD:    /work3/s194113/10302/10302_NM/MnI2
Python: 3.8.5
gpaw:   /zhome/87/8/147075/venv-name/gpaw/gpaw (10808453a8)
_gpaw:  /zhome/87/8/147075/venv-name/gpaw/
        _gpaw.cpython-38-x86_64-linux-gnu.so (10808453a8)
ase:    /zhome/87/8/147075/venv-name/ase/ase (version 3.23.0b1-c36115a2db)
numpy:  /zhome/87/8/147075/venv-name/lib/python3.8/site-packages/numpy (version 1.24.4)
scipy:  /zhome/87/8/147075/venv-name/lib/python3.8/site-packages/scipy (version 1.10.1)
libxc:  4.3.4
units:  Angstrom and eV
cores: 12
OpenMP: False
OMP_NUM_THREADS: 1

---
input parameters:
  kpts: 
    density: 8.0
    gamma: True
  magmoms: [[4.4079912, 0, 0], [0.08032672, 0, 0], [0.08032672, 0, 0]]
  mixer: 
    backend: 'pulay'
    beta: 0.05
    method: 'sum'
    nmaxold: 5
    weight: 100
  mode: 
    name: 'pw'
    ecut: 800.0
    qspiral: array([0.5, 0. , 0. ])
  parallel: 
    kpt: None
    domain: 1
    band: 1
    order: 'kdb'
    stridebands: False
    augment_grids: False
    sl_auto: False
    sl_default: None
    sl_diagonalize: None
    sl_inverse_cholesky: None
    sl_lcao: None
    sl_lrtddft: None
    use_elpa: False
    elpasolver: '2stage'
    buffer_size: None
    gpu: False
  symmetry: 
    point_group: False
    time_reversal: False
  xc: 
    name: 'LDA'

#                        
#                        
#                        
#                        
#              I         
#                        
#                        
#        Mn              
#          I             
#                        
#                        
#                        
#                        
#                        

atoms: [  # symbols, positions [Ang] and initial magnetic moments
  [ Mn, [   0.000000,    0.000000,    7.649535], [ 4.408,  0.000,  0.000]], # 0
  [  I, [   2.082858,    1.202539,    9.299069], [ 0.080,  0.000,  0.000]], # 1
  [  I, [   0.000000,    2.405077,    6.000000], [ 0.080,  0.000,  0.000]]] # 2

cell: [  # Ang
#     x            y            z
  [   4.165716,    0.000000,    0.000000],
  [  -2.082858,    3.607616,    0.000000],
  [   0.000000,    0.000000,   15.299069]]

periodic: [True      , True      , False     ]
lengths:  [  4.165716,   4.165716,  15.299069]  # Ang
angles:   [ 90.000000,  90.000000, 120.000000]

symmetry:
  number of symmetries: 1
  rotations: [
    [[ 1,  0,  0], [ 0,  1,  0], [ 0,  0,  1]]]

bz sampling:
  number of bz points: 196
  number of ibz points: 196
  monkhorst-pack size: [14, 14, 1]
  monkhorst-pack shift: [0.03571428571428571, 0.03571428571428571, 0.0]
  points and weights: [
    [[ -0.42857143,  -0.42857143,   0.00000000], 0.00510204],  # 0
    [[ -0.42857143,  -0.35714286,   0.00000000], 0.00510204],  # 1
    [[ -0.42857143,  -0.28571429,   0.00000000], 0.00510204],  # 2
    [[ -0.42857143,  -0.21428571,   0.00000000], 0.00510204],  # 3
    [[ -0.42857143,  -0.14285714,   0.00000000], 0.00510204],  # 4
    [[ -0.42857143,  -0.07142857,   0.00000000], 0.00510204],  # 5
    [[ -0.42857143,   0.00000000,   0.00000000], 0.00510204],  # 6
    [[ -0.42857143,   0.07142857,   0.00000000], 0.00510204],  # 7
    [[ -0.42857143,   0.14285714,   0.00000000], 0.00510204],  # 8
    [[ -0.42857143,   0.21428571,   0.00000000], 0.00510204],  # 9
    # ...
    [[  0.50000000,   0.50000000,   0.00000000], 0.00510204]]  # 195

plane wave coefficients: 11927
cutoff: 800.0 eV

spin-components: 4  # (non-collinear spins)
bands: 42
valence electrons: 29.0
spin-degeneracy: 1
dtype: complex128

memory:
    wave functions: 3_105_768_960  # bytes  (258_814_080 per core)

parallelization:
    kpt:    12
    domain: 1
    band:   1

density:
  components: 4
  grid points: [ 28  28 100]
  charge: 0.0  # |e|

potential:
  grid points: [ 28  28 100]

species:
  Mn:
    name: Manganese
    id: 0d715a8018be061a6e9ea6f2d364ac92
    Z: 25.0
    valence: 15
    core: 10
    charge: 0.0
    file: /zhome/86/d/1666/PAW/gpaw-setups-0.9.20000/Mn.LDA.gz
    compensation charges: {type: gauss,
                           rc: 0.38,
                           lmax: 2}
    cutoffs: {filter: 2.14,
              core: 0.86}
    valence states:
      #              energy  rcut
      - 3s(2.00)   -85.387   1.275
      - 4s(2.00)    -5.282   1.275
      - 3p(6.00)   -54.493   1.281
      - 4p(0.00)    -1.471   1.281
      - 3d(5.00)    -7.009   1.138
      -  d          20.203   1.138
  
    # Using partial waves for Mn as LCAO basis

  I:
    name: Iodine
    id: b559721c0c096a7b4c8fc0e0f4de5cf4
    Z: 53.0
    valence: 7
    core: 46
    charge: 0.0
    file: /zhome/86/d/1666/PAW/gpaw-setups-0.9.20000/I.LDA.gz
    compensation charges: {type: gauss,
                           rc: 0.37,
                           lmax: 2}
    cutoffs: {filter: 2.06,
              core: 2.90}
    valence states:
      #              energy  rcut
      - 5s(2.00)   -17.626   1.164
      - 5p(5.00)    -7.241   1.164
      -  s           9.585   1.164
      -  p          19.970   1.164
      -  d           0.000   1.164
  
    # Using partial waves for I as LCAO basis

Reference energy: -418222.442431  # eV

eigensolver:
  name: 'Davidson'
  niter: 2
  converge_bands: 'occupied'
Density mixing:
  Method: sum
  Backend: pulay
  Linear mixing parameter: 0.05
  old densities: 5
  Damping of long wavelength oscillations: 100
occupation numbers:
  Fermi-Dirac:
    width: 0.1000  # eV
  

poisson solver:
  ecut: 6400.0  # eV

xc functional:
  name: None

convergence criteria:
- Maximum [total energy] change in last 3 cyles: 0.0005 eV / valence electron
- Maximum integral of absolute [dens]ity change: 0.0001 electrons / valence electron
- Maximum integral of absolute [eigenst]ate change: 4e-08 eV^2 / valence electron
maximum number of iterations: 333

#      iter     time        total  log10-change:
#                          energy   eigst   dens
# iter:   1 07:25:53   -14.778345                  +4.6,+0.0,+0.0
# iter:   2 07:26:37   -15.151362   -0.16  -1.49   +4.1,-0.0,+0.0
# iter:   3 07:27:22   -15.137909   -0.78  -1.52   +4.1,-0.0,-0.0
# iter:   4 07:28:05   -15.153896   -1.07  -1.56   +4.2,-0.0,-0.0
# iter:   5 07:28:49   -15.243438   -1.37  -1.76   +4.4,-0.0,-0.0
# iter:   6 07:29:33   -15.156159   -1.64  -2.16   +4.5,-0.0,+0.0
# iter:   7 07:30:17   -15.157454   -1.63  -2.29   +4.4,-0.0,+0.0
# iter:   8 07:31:00   -15.138355   -2.16  -2.16   +4.4,-0.0,+0.0
# iter:   9 07:31:44   -15.138376   -2.45  -2.91   +4.4,+0.0,+0.0
# iter:  10 07:32:28   -15.139809c  -2.65  -3.03   +4.4,+0.0,+0.0
# iter:  11 07:33:12   -15.138434c  -2.84  -2.93   +4.4,+0.0,-0.0
# iter:  12 07:33:55   -15.138532c  -3.07  -3.42   +4.4,+0.0,-0.0
# iter:  13 07:34:39   -15.138567c  -3.26  -3.50   +4.4,+0.0,-0.0
# iter:  14 07:35:22   -15.138664c  -3.43  -3.55   +4.4,+0.0,+0.0
# iter:  15 07:36:05   -15.138639c  -3.62  -3.56   +4.4,+0.0,+0.0
# iter:  16 07:36:49   -15.138632c  -3.79  -3.65   +4.4,+0.0,+0.0
# iter:  17 07:37:32   -15.138654c  -3.95  -3.71   +4.4,+0.0,+0.0
# iter:  18 07:38:16   -15.138630c  -4.12  -3.93   +4.4,+0.0,-0.0
# iter:  19 07:39:00   -15.138630c  -4.28  -4.17c  +4.4,+0.0,-0.0
# iter:  20 07:39:43   -15.138631c  -4.44  -4.25c  +4.4,+0.0,-0.0
# iter:  21 07:40:27   -15.138628c  -4.58  -4.39c  +4.4,+0.0,-0.0
# iter:  22 07:41:10   -15.138627c  -4.75  -4.33c  +4.4,-0.0,-0.0
# iter:  23 07:41:54   -15.138627c  -4.89  -4.26c  +4.4,+0.0,-0.0
# iter:  24 07:42:38   -15.138629c  -5.03  -4.38c  +4.4,+0.0,-0.0
# iter:  25 07:43:21   -15.138629c  -5.18  -4.54c  +4.4,+0.0,-0.0
# iter:  26 07:44:05   -15.138629c  -5.32  -4.61c  +4.4,+0.0,-0.0
# iter:  27 07:44:48   -15.138629c  -5.45  -4.56c  +4.4,+0.0,-0.0
# iter:  28 07:45:31   -15.138630c  -5.51  -4.54c  +4.4,-0.0,-0.0
# iter:  29 07:46:15   -15.138632c  -5.59  -4.28c  +4.4,+0.0,-0.0
# iter:  30 07:46:59   -15.138631c  -5.85  -4.62c  +4.4,+0.0,-0.0
# iter:  31 07:47:43   -15.138631c  -5.98  -5.10c  +4.4,+0.0,-0.0
# iter:  32 07:48:26   -15.138631c  -6.10  -5.13c  +4.4,+0.0,-0.0
# iter:  33 07:49:10   -15.138631c  -6.23  -5.26c  +4.4,+0.0,-0.0
# iter:  34 07:49:54   -15.138630c  -6.35  -5.29c  +4.4,+0.0,-0.0
# iter:  35 07:50:38   -15.138631c  -6.47  -5.25c  +4.4,+0.0,-0.0
# iter:  36 07:51:22   -15.138631c  -6.58  -5.55c  +4.4,+0.0,-0.0
# iter:  37 07:52:06   -15.138631c  -6.70  -5.62c  +4.4,+0.0,+0.0
# iter:  38 07:52:50   -15.138631c  -6.82  -5.83c  +4.4,+0.0,+0.0
# iter:  39 07:53:34   -15.138631c  -6.93  -6.05c  +4.4,+0.0,-0.0
# iter:  40 07:54:17   -15.138631c  -7.05  -6.13c  +4.4,+0.0,-0.0
# iter:  41 07:55:00   -15.138631c  -7.16  -6.27c  +4.4,+0.0,+0.0
# iter:  42 07:55:44   -15.138631c  -7.27  -6.40c  +4.4,+0.0,+0.0
# iter:  43 07:56:27   -15.138631c  -7.39  -6.43c  +4.4,+0.0,+0.0
# iter:  44 07:57:11   -15.138631c  -7.50c -6.46c  +4.4,+0.0,+0.0
scf_steps: 44
energies:  # eV
  coulomb:         -12.536063
  zero:              0.094240
  xc:              -17.153779
  external:          0.000000
  kinetic:          14.457623
  spinorbit:         0.000000
  entropy:          -0.001306
  total:           -15.139284
  extrapolated:    -15.138631

dipole moment: [-4.647684, -8.843245, -9.629336]  # |e|*Ang

total magnetic moment: [4.390857, 0.000014, 0.000000]

local magnetic moments: [
  [ 4.328435,  0.000014,  0.000000],  # Mn 0
  [-0.023899,  0.000001,  0.000000],  # I  1
  [ 0.023899,  0.000001,  0.000000]]  # I  2


Fermi level: -1.211 eV

kpt = [-0.429, -0.429, 0.000], weight = 0.005:
  Band      eig [eV]   occ [0-1]
     0       -82.176       1.000
   ...
    21        -4.040       1.000
    22        -3.850       1.000
    23        -3.809       1.000
    24        -3.756       1.000
    25        -3.426       1.000
    26        -3.350       1.000
    27        -2.234       1.000
    28        -2.051       1.000
    29        -0.369       0.000
    30        -0.298       0.000
    31        -0.139       0.000
    32         0.410       0.000
    33         0.573       0.000
    34         1.589       0.000
    35         2.285       0.000
    36         3.420       0.000
   ...
    41         4.766       0.000

kpt = [-0.429, -0.357, 0.000], weight = 0.005:
  Band      eig [eV]   occ [0-1]
     0       -82.176       1.000
   ...
    21        -3.924       1.000
    22        -3.836       1.000
    23        -3.697       1.000
    24        -3.614       1.000
    25        -3.378       1.000
    26        -3.276       1.000
    27        -2.321       1.000
    28        -1.948       0.999
    29        -0.407       0.000
    30        -0.283       0.000
    31        -0.139       0.000
    32         0.385       0.000
    33         0.570       0.000
    34         1.590       0.000
    35         2.251       0.000
    36         3.143       0.000
   ...
    41         4.795       0.000

kpt = [-0.429, -0.286, 0.000], weight = 0.005:
  Band      eig [eV]   occ [0-1]
     0       -82.176       1.000
   ...
    21        -3.881       1.000
    22        -3.703       1.000
    23        -3.584       1.000
    24        -3.535       1.000
    25        -3.367       1.000
    26        -3.181       1.000
    27        -2.388       1.000
    28        -1.917       0.999
    29        -0.401       0.000
    30        -0.247       0.000
    31        -0.179       0.000
    32         0.317       0.000
    33         0.555       0.000
    34         1.764       0.000
    35         2.418       0.000
    36         3.154       0.000
   ...
    41         4.885       0.000
(only showing first 3 out of 196 k-points)

Gap: 1.152 eV
Transition (v -> c):
  (s=0, k=188, n=28, [0.50, 0.00, 0.00]) -> (s=0, k=90, n=29, [0.00, 0.00, 0.00])
# Writing to Band_Conv/gsq-36.gpw (mode='')

