#  __  _  _
# | _ |_)|_||  |
# |__||  | ||/\| - 24.1.0

User:   s194113@n-62-29-34
Date:   Mon May  6 02:58:50 2024
Arch:   x86_64
Pid:    15878
CWD:    /work3/s194113/10302/10302_NM/MnI2
Python: 3.8.5
gpaw:   /zhome/87/8/147075/venv-name/gpaw/gpaw (10808453a8)
_gpaw:  /zhome/87/8/147075/venv-name/gpaw/
        _gpaw.cpython-38-x86_64-linux-gnu.so (10808453a8)
ase:    /zhome/87/8/147075/venv-name/ase/ase (version 3.23.0b1-c36115a2db)
numpy:  /zhome/87/8/147075/venv-name/lib/python3.8/site-packages/numpy (version 1.24.4)
scipy:  /zhome/87/8/147075/venv-name/lib/python3.8/site-packages/scipy (version 1.10.1)
libxc:  4.3.4
units:  Angstrom and eV
cores: 18
OpenMP: False
OMP_NUM_THREADS: 1

---
input parameters:
  kpts: 
    density: 8.0
    gamma: True
  magmoms: [[4.4079912, 0, 0], [0.08032672, 0, 0], [0.08032672, 0, 0]]
  mixer: 
    backend: 'pulay'
    beta: 0.05
    method: 'sum'
    nmaxold: 5
    weight: 100
  mode: 
    name: 'pw'
    ecut: 800.0
    qspiral: array([0.13888889, 0.        , 0.        ])
  parallel: 
    kpt: None
    domain: 1
    band: 1
    order: 'kdb'
    stridebands: False
    augment_grids: False
    sl_auto: False
    sl_default: None
    sl_diagonalize: None
    sl_inverse_cholesky: None
    sl_lcao: None
    sl_lrtddft: None
    use_elpa: False
    elpasolver: '2stage'
    buffer_size: None
    gpu: False
  symmetry: 
    point_group: False
    time_reversal: False
  xc: 
    name: 'LDA'

#                        
#                        
#                        
#                        
#              I         
#                        
#                        
#        Mn              
#          I             
#                        
#                        
#                        
#                        
#                        

atoms: [  # symbols, positions [Ang] and initial magnetic moments
  [ Mn, [   0.000000,    0.000000,    7.649535], [ 4.408,  0.000,  0.000]], # 0
  [  I, [   2.082858,    1.202539,    9.299069], [ 0.080,  0.000,  0.000]], # 1
  [  I, [   0.000000,    2.405077,    6.000000], [ 0.080,  0.000,  0.000]]] # 2

cell: [  # Ang
#     x            y            z
  [   4.165716,    0.000000,    0.000000],
  [  -2.082858,    3.607616,    0.000000],
  [   0.000000,    0.000000,   15.299069]]

periodic: [True      , True      , False     ]
lengths:  [  4.165716,   4.165716,  15.299069]  # Ang
angles:   [ 90.000000,  90.000000, 120.000000]

symmetry:
  number of symmetries: 1
  rotations: [
    [[ 1,  0,  0], [ 0,  1,  0], [ 0,  0,  1]]]

bz sampling:
  number of bz points: 196
  number of ibz points: 196
  monkhorst-pack size: [14, 14, 1]
  monkhorst-pack shift: [0.03571428571428571, 0.03571428571428571, 0.0]
  points and weights: [
    [[ -0.42857143,  -0.42857143,   0.00000000], 0.00510204],  # 0
    [[ -0.42857143,  -0.35714286,   0.00000000], 0.00510204],  # 1
    [[ -0.42857143,  -0.28571429,   0.00000000], 0.00510204],  # 2
    [[ -0.42857143,  -0.21428571,   0.00000000], 0.00510204],  # 3
    [[ -0.42857143,  -0.14285714,   0.00000000], 0.00510204],  # 4
    [[ -0.42857143,  -0.07142857,   0.00000000], 0.00510204],  # 5
    [[ -0.42857143,   0.00000000,   0.00000000], 0.00510204],  # 6
    [[ -0.42857143,   0.07142857,   0.00000000], 0.00510204],  # 7
    [[ -0.42857143,   0.14285714,   0.00000000], 0.00510204],  # 8
    [[ -0.42857143,   0.21428571,   0.00000000], 0.00510204],  # 9
    # ...
    [[  0.50000000,   0.50000000,   0.00000000], 0.00510204]]  # 195

plane wave coefficients: 11927
cutoff: 800.0 eV

spin-components: 4  # (non-collinear spins)
bands: 42
valence electrons: 29.0
spin-degeneracy: 1
dtype: complex128

memory:
    wave functions: 3_105_768_960  # bytes  (172_542_720 per core)

parallelization:
    kpt:    18
    domain: 1
    band:   1

density:
  components: 4
  grid points: [ 28  28 100]
  charge: 0.0  # |e|

potential:
  grid points: [ 28  28 100]

species:
  Mn:
    name: Manganese
    id: 0d715a8018be061a6e9ea6f2d364ac92
    Z: 25.0
    valence: 15
    core: 10
    charge: 0.0
    file: /zhome/86/d/1666/PAW/gpaw-setups-0.9.20000/Mn.LDA.gz
    compensation charges: {type: gauss,
                           rc: 0.38,
                           lmax: 2}
    cutoffs: {filter: 2.14,
              core: 0.86}
    valence states:
      #              energy  rcut
      - 3s(2.00)   -85.387   1.275
      - 4s(2.00)    -5.282   1.275
      - 3p(6.00)   -54.493   1.281
      - 4p(0.00)    -1.471   1.281
      - 3d(5.00)    -7.009   1.138
      -  d          20.203   1.138
  
    # Using partial waves for Mn as LCAO basis

  I:
    name: Iodine
    id: b559721c0c096a7b4c8fc0e0f4de5cf4
    Z: 53.0
    valence: 7
    core: 46
    charge: 0.0
    file: /zhome/86/d/1666/PAW/gpaw-setups-0.9.20000/I.LDA.gz
    compensation charges: {type: gauss,
                           rc: 0.37,
                           lmax: 2}
    cutoffs: {filter: 2.06,
              core: 2.90}
    valence states:
      #              energy  rcut
      - 5s(2.00)   -17.626   1.164
      - 5p(5.00)    -7.241   1.164
      -  s           9.585   1.164
      -  p          19.970   1.164
      -  d           0.000   1.164
  
    # Using partial waves for I as LCAO basis

Reference energy: -418222.442431  # eV

eigensolver:
  name: 'Davidson'
  niter: 2
  converge_bands: 'occupied'
Density mixing:
  Method: sum
  Backend: pulay
  Linear mixing parameter: 0.05
  old densities: 5
  Damping of long wavelength oscillations: 100
occupation numbers:
  Fermi-Dirac:
    width: 0.1000  # eV
  

poisson solver:
  ecut: 6400.0  # eV

xc functional:
  name: None

convergence criteria:
- Maximum [total energy] change in last 3 cyles: 0.0005 eV / valence electron
- Maximum integral of absolute [dens]ity change: 0.0001 electrons / valence electron
- Maximum integral of absolute [eigenst]ate change: 4e-08 eV^2 / valence electron
maximum number of iterations: 333

#      iter     time        total  log10-change:
#                          energy   eigst   dens
# iter:   1 02:59:37   -15.193168                  +4.6,+0.0,+0.0
# iter:   2 03:00:06   -15.188134   -0.70  -1.49   +4.7,-0.0,-0.0
# iter:   3 03:00:36   -15.116653   -1.15  -1.52   +4.7,+0.0,-0.0
# iter:   4 03:01:06   -15.124761   -1.44  -1.59   +4.8,+0.0,-0.0
# iter:   5 03:01:35   -15.168073   -1.70  -1.79   +4.9,+0.0,+0.0
# iter:   6 03:02:05   -15.129695   -1.87  -2.28   +4.9,+0.0,+0.0
# iter:   7 03:02:34   -15.130981   -2.22  -2.30   +4.9,+0.0,+0.0
# iter:   8 03:03:04   -15.152410   -2.40  -2.71   +4.9,+0.0,-0.0
# iter:   9 03:03:33   -15.135294   -2.77  -2.36   +4.9,+0.0,-0.0
# iter:  10 03:04:03   -15.127552   -2.69  -2.63   +4.9,+0.0,+0.0
# iter:  11 03:04:32   -15.127982c  -3.28  -3.47   +4.9,+0.0,+0.0
# iter:  12 03:05:01   -15.128567c  -3.39  -3.48   +4.9,+0.0,-0.0
# iter:  13 03:05:31   -15.128404c  -3.73  -3.15   +4.9,+0.0,+0.0
# iter:  14 03:06:00   -15.128200c  -3.89  -3.19   +4.9,+0.0,-0.0
# iter:  15 03:06:29   -15.128190c  -4.07  -3.31   +4.9,+0.0,-0.0
# iter:  16 03:06:58   -15.128010c  -3.98  -3.34   +4.9,+0.0,-0.0
# iter:  17 03:07:28   -15.128030c  -4.35  -3.55   +4.9,+0.0,-0.0
# iter:  18 03:07:58   -15.128044c  -4.53  -3.56   +4.9,+0.0,-0.0
# iter:  19 03:08:27   -15.128069c  -4.70  -3.58   +4.9,+0.0,-0.0
# iter:  20 03:08:56   -15.128022c  -4.58  -3.60   +4.9,+0.0,-0.0
# iter:  21 03:09:26   -15.128016c  -5.05  -3.77   +4.9,+0.0,-0.0
# iter:  22 03:09:56   -15.128039c  -4.95  -3.84   +4.9,+0.0,-0.0
# iter:  23 03:10:25   -15.128016c  -5.16  -3.90   +4.9,+0.0,-0.0
# iter:  24 03:10:54   -15.128046c  -5.13  -4.01c  +4.9,+0.0,-0.0
# iter:  25 03:11:24   -15.128064c  -5.50  -4.05c  +4.9,+0.0,-0.0
# iter:  26 03:11:53   -15.128023c  -5.38  -3.94   +4.9,+0.0,-0.0
# iter:  27 03:12:23   -15.128057c  -5.55  -4.40c  +4.9,+0.0,-0.0
# iter:  28 03:12:52   -15.128029c  -5.79  -4.00   +4.9,+0.0,-0.0
# iter:  29 03:13:21   -15.128025c  -6.12  -4.42c  +4.9,+0.0,-0.0
# iter:  30 03:13:51   -15.128024c  -6.35  -4.62c  +4.9,+0.0,-0.0
# iter:  31 03:14:20   -15.128020c  -6.44  -4.65c  +4.9,+0.0,-0.0
# iter:  32 03:14:50   -15.128021c  -6.65  -4.83c  +4.9,+0.0,-0.0
# iter:  33 03:15:19   -15.128022c  -6.79  -4.97c  +4.9,+0.0,-0.0
# iter:  34 03:15:48   -15.128021c  -6.95  -5.08c  +4.9,+0.0,-0.0
# iter:  35 03:16:17   -15.128024c  -6.86  -5.13c  +4.9,+0.0,-0.0
# iter:  36 03:16:46   -15.128022c  -7.14  -4.84c  +4.9,+0.0,-0.0
# iter:  37 03:17:16   -15.128020c  -7.08  -5.14c  +4.9,+0.0,-0.0
# iter:  38 03:17:45   -15.128022c  -7.29  -4.94c  +4.9,+0.0,-0.0
# iter:  39 03:18:15   -15.128022c  -7.66c -5.50c  +4.9,+0.0,-0.0
scf_steps: 39
energies:  # eV
  coulomb:         -12.894809
  zero:              0.093227
  xc:              -17.225860
  external:          0.000000
  kinetic:          14.900327
  spinorbit:         0.000000
  entropy:          -0.001813
  total:           -15.128928
  extrapolated:    -15.128022

dipole moment: [-5.656131, -9.953837, -13.914896]  # |e|*Ang

total magnetic moment: [4.912984, 0.009624, -0.000000]

local magnetic moments: [
  [ 4.353256, -0.000307, -0.000000],  # Mn 0
  [ 0.062893, -0.042220, -0.000000],  # I  1
  [ 0.072767, -0.021049, -0.000000]]  # I  2


Fermi level: -1.259 eV

kpt = [-0.429, -0.429, 0.000], weight = 0.005:
  Band      eig [eV]   occ [0-1]
     0       -82.210       1.000
   ...
    21        -3.997       1.000
    22        -3.911       1.000
    23        -3.858       1.000
    24        -3.686       1.000
    25        -3.657       1.000
    26        -3.569       1.000
    27        -2.133       1.000
    28        -2.091       1.000
    29        -0.552       0.001
    30        -0.169       0.000
    31        -0.155       0.000
    32         0.465       0.000
    33         0.620       0.000
    34         1.340       0.000
    35         2.297       0.000
    36         3.116       0.000
   ...
    41         5.072       0.000

kpt = [-0.429, -0.357, 0.000], weight = 0.005:
  Band      eig [eV]   occ [0-1]
     0       -82.210       1.000
   ...
    21        -4.107       1.000
    22        -3.981       1.000
    23        -3.821       1.000
    24        -3.684       1.000
    25        -3.596       1.000
    26        -3.532       1.000
    27        -2.267       1.000
    28        -2.135       1.000
    29        -0.419       0.000
    30        -0.182       0.000
    31        -0.152       0.000
    32         0.401       0.000
    33         0.560       0.000
    34         1.611       0.000
    35         2.468       0.000
    36         3.585       0.000
   ...
    41         4.870       0.000

kpt = [-0.429, -0.286, 0.000], weight = 0.005:
  Band      eig [eV]   occ [0-1]
     0       -82.210       1.000
   ...
    21        -4.163       1.000
    22        -4.012       1.000
    23        -3.801       1.000
    24        -3.707       1.000
    25        -3.565       1.000
    26        -3.499       1.000
    27        -2.358       1.000
    28        -2.142       1.000
    29        -0.340       0.000
    30        -0.197       0.000
    31        -0.158       0.000
    32         0.363       0.000
    33         0.536       0.000
    34         1.785       0.000
    35         2.614       0.000
    36         3.683       0.000
   ...
    41         5.137       0.000
(only showing first 3 out of 196 k-points)

Gap: 0.920 eV
Transition (v -> c):
  (s=0, k=90, n=28, [0.00, 0.00, 0.00]) -> (s=0, k=188, n=29, [0.50, 0.00, 0.00])
# Writing to Band_Conv/gsq-10.gpw (mode='')

---

timing:  # [seconds]
  Total: 1164.958  # ━━━━━━━━━━━━━━━━━━━━━━━━━━━━━━━━━━━━━━━━━━━━━━━━━━━━━━━━
  Init:    19.008  # ━
  SCF:   1145.376  # ━━━━━━━━━━━━━━━━━━━━━━━━━━━━━━━━━━━━━━━━━━━━━━━━━━━━━━━

Max RSS: 1059.098  # MiB
