#  __  _  _
# | _ |_)|_||  |
# |__||  | ||/\| - 24.1.0

User:   s194113@n-62-29-34
Date:   Tue May  7 08:09:41 2024
Arch:   x86_64
Pid:    15878
CWD:    /work3/s194113/10302/10302_NM/MnI2
Python: 3.8.5
gpaw:   /zhome/87/8/147075/venv-name/gpaw/gpaw (10808453a8)
_gpaw:  /zhome/87/8/147075/venv-name/gpaw/
        _gpaw.cpython-38-x86_64-linux-gnu.so (10808453a8)
ase:    /zhome/87/8/147075/venv-name/ase/ase (version 3.23.0b1-c36115a2db)
numpy:  /zhome/87/8/147075/venv-name/lib/python3.8/site-packages/numpy (version 1.24.4)
scipy:  /zhome/87/8/147075/venv-name/lib/python3.8/site-packages/scipy (version 1.10.1)
libxc:  4.3.4
units:  Angstrom and eV
cores: 18
OpenMP: False
OMP_NUM_THREADS: 1

---
input parameters:
  kpts: 
    density: 8.0
    gamma: True
  magmoms: [[4.4079912, 0, 0], [0.08032672, 0, 0], [0.08032672, 0, 0]]
  mixer: 
    backend: 'pulay'
    beta: 0.05
    method: 'sum'
    nmaxold: 5
    weight: 100
  mode: 
    name: 'pw'
    ecut: 800.0
    qspiral: array([0.03100775, 0.03100775, 0.        ])
  parallel: 
    kpt: None
    domain: 1
    band: 1
    order: 'kdb'
    stridebands: False
    augment_grids: False
    sl_auto: False
    sl_default: None
    sl_diagonalize: None
    sl_inverse_cholesky: None
    sl_lcao: None
    sl_lrtddft: None
    use_elpa: False
    elpasolver: '2stage'
    buffer_size: None
    gpu: False
  symmetry: 
    point_group: False
    time_reversal: False
  xc: 
    name: 'LDA'

#                        
#                        
#                        
#                        
#              I         
#                        
#                        
#        Mn              
#          I             
#                        
#                        
#                        
#                        
#                        

atoms: [  # symbols, positions [Ang] and initial magnetic moments
  [ Mn, [   0.000000,    0.000000,    7.649535], [ 4.408,  0.000,  0.000]], # 0
  [  I, [   2.082858,    1.202539,    9.299069], [ 0.080,  0.000,  0.000]], # 1
  [  I, [   0.000000,    2.405077,    6.000000], [ 0.080,  0.000,  0.000]]] # 2

cell: [  # Ang
#     x            y            z
  [   4.165716,    0.000000,    0.000000],
  [  -2.082858,    3.607616,    0.000000],
  [   0.000000,    0.000000,   15.299069]]

periodic: [True      , True      , False     ]
lengths:  [  4.165716,   4.165716,  15.299069]  # Ang
angles:   [ 90.000000,  90.000000, 120.000000]

symmetry:
  number of symmetries: 1
  rotations: [
    [[ 1,  0,  0], [ 0,  1,  0], [ 0,  0,  1]]]

bz sampling:
  number of bz points: 196
  number of ibz points: 196
  monkhorst-pack size: [14, 14, 1]
  monkhorst-pack shift: [0.03571428571428571, 0.03571428571428571, 0.0]
  points and weights: [
    [[ -0.42857143,  -0.42857143,   0.00000000], 0.00510204],  # 0
    [[ -0.42857143,  -0.35714286,   0.00000000], 0.00510204],  # 1
    [[ -0.42857143,  -0.28571429,   0.00000000], 0.00510204],  # 2
    [[ -0.42857143,  -0.21428571,   0.00000000], 0.00510204],  # 3
    [[ -0.42857143,  -0.14285714,   0.00000000], 0.00510204],  # 4
    [[ -0.42857143,  -0.07142857,   0.00000000], 0.00510204],  # 5
    [[ -0.42857143,   0.00000000,   0.00000000], 0.00510204],  # 6
    [[ -0.42857143,   0.07142857,   0.00000000], 0.00510204],  # 7
    [[ -0.42857143,   0.14285714,   0.00000000], 0.00510204],  # 8
    [[ -0.42857143,   0.21428571,   0.00000000], 0.00510204],  # 9
    # ...
    [[  0.50000000,   0.50000000,   0.00000000], 0.00510204]]  # 195

plane wave coefficients: 11927
cutoff: 800.0 eV

spin-components: 4  # (non-collinear spins)
bands: 42
valence electrons: 29.0
spin-degeneracy: 1
dtype: complex128

memory:
    wave functions: 3_105_768_960  # bytes  (172_542_720 per core)

parallelization:
    kpt:    18
    domain: 1
    band:   1

density:
  components: 4
  grid points: [ 28  28 100]
  charge: 0.0  # |e|

potential:
  grid points: [ 28  28 100]

species:
  Mn:
    name: Manganese
    id: 0d715a8018be061a6e9ea6f2d364ac92
    Z: 25.0
    valence: 15
    core: 10
    charge: 0.0
    file: /zhome/86/d/1666/PAW/gpaw-setups-0.9.20000/Mn.LDA.gz
    compensation charges: {type: gauss,
                           rc: 0.38,
                           lmax: 2}
    cutoffs: {filter: 2.14,
              core: 0.86}
    valence states:
      #              energy  rcut
      - 3s(2.00)   -85.387   1.275
      - 4s(2.00)    -5.282   1.275
      - 3p(6.00)   -54.493   1.281
      - 4p(0.00)    -1.471   1.281
      - 3d(5.00)    -7.009   1.138
      -  d          20.203   1.138
  
    # Using partial waves for Mn as LCAO basis

  I:
    name: Iodine
    id: b559721c0c096a7b4c8fc0e0f4de5cf4
    Z: 53.0
    valence: 7
    core: 46
    charge: 0.0
    file: /zhome/86/d/1666/PAW/gpaw-setups-0.9.20000/I.LDA.gz
    compensation charges: {type: gauss,
                           rc: 0.37,
                           lmax: 2}
    cutoffs: {filter: 2.06,
              core: 2.90}
    valence states:
      #              energy  rcut
      - 5s(2.00)   -17.626   1.164
      - 5p(5.00)    -7.241   1.164
      -  s           9.585   1.164
      -  p          19.970   1.164
      -  d           0.000   1.164
  
    # Using partial waves for I as LCAO basis

Reference energy: -418222.442431  # eV

eigensolver:
  name: 'Davidson'
  niter: 2
  converge_bands: 'occupied'
Density mixing:
  Method: sum
  Backend: pulay
  Linear mixing parameter: 0.05
  old densities: 5
  Damping of long wavelength oscillations: 100
occupation numbers:
  Fermi-Dirac:
    width: 0.1000  # eV
  

poisson solver:
  ecut: 6400.0  # eV

xc functional:
  name: None

convergence criteria:
- Maximum [total energy] change in last 3 cyles: 0.0005 eV / valence electron
- Maximum integral of absolute [dens]ity change: 0.0001 electrons / valence electron
- Maximum integral of absolute [eigenst]ate change: 4e-08 eV^2 / valence electron
maximum number of iterations: 333

#      iter     time        total  log10-change:
#                          energy   eigst   dens
# iter:   1 08:10:27   -15.208556                  +4.6,+0.0,+0.0
# iter:   2 08:10:56   -15.182745   -0.77  -1.49   +4.8,-0.0,-0.0
# iter:   3 08:11:26   -15.105802   -1.15  -1.51   +4.8,+0.0,+0.0
# iter:   4 08:11:55   -15.119295   -1.49  -1.60   +4.9,+0.0,-0.0
# iter:   5 08:12:24   -15.154877   -1.74  -1.79   +5.0,+0.0,-0.0
# iter:   6 08:12:53   -15.125313   -1.97  -2.29   +5.0,+0.0,+0.0
# iter:   7 08:13:22   -15.122572   -2.27  -2.41   +5.0,+0.0,+0.0
# iter:   8 08:13:51   -15.122669c  -2.63  -2.77   +5.0,+0.0,+0.0
# iter:   9 08:14:20   -15.124563c  -2.79  -2.78   +5.0,+0.0,+0.0
# iter:  10 08:14:49   -15.122960c  -2.88  -2.88   +5.0,+0.0,+0.0
# iter:  11 08:15:18   -15.122490c  -3.30  -3.15   +5.0,+0.0,+0.0
# iter:  12 08:15:47   -15.122489c  -3.52  -3.54   +5.0,+0.0,+0.0
# iter:  13 08:16:16   -15.122536c  -3.69  -3.59   +5.0,+0.0,+0.0
# iter:  14 08:16:45   -15.122557c  -3.87  -3.74   +5.0,+0.0,+0.0
# iter:  15 08:17:14   -15.122547c  -4.05  -4.02c  +5.0,+0.0,+0.0
# iter:  16 08:17:43   -15.122549c  -4.22  -4.13c  +5.0,+0.0,+0.0
# iter:  17 08:18:12   -15.122562c  -4.37  -4.18c  +5.0,+0.0,+0.0
# iter:  18 08:18:41   -15.122558c  -4.55  -4.36c  +5.0,+0.0,+0.0
# iter:  19 08:19:10   -15.122552c  -4.72  -4.50c  +5.0,+0.0,+0.0
# iter:  20 08:19:39   -15.122557c  -4.89  -4.99c  +5.0,+0.0,+0.0
# iter:  21 08:20:08   -15.122554c  -5.06  -4.72c  +5.0,+0.0,+0.0
# iter:  22 08:20:37   -15.122554c  -5.24  -4.93c  +5.0,+0.0,+0.0
# iter:  23 08:21:06   -15.122554c  -5.40  -4.80c  +5.0,+0.0,+0.0
# iter:  24 08:21:35   -15.122555c  -5.58  -5.08c  +5.0,+0.0,+0.0
# iter:  25 08:22:04   -15.122555c  -5.74  -5.08c  +5.0,+0.0,+0.0
# iter:  26 08:22:33   -15.122555c  -5.91  -5.10c  +5.0,+0.0,+0.0
# iter:  27 08:23:02   -15.122555c  -6.08  -5.25c  +5.0,+0.0,+0.0
# iter:  28 08:23:32   -15.122555c  -6.23  -5.40c  +5.0,+0.0,+0.0
# iter:  29 08:24:01   -15.122555c  -6.39  -5.48c  +5.0,+0.0,+0.0
# iter:  30 08:24:30   -15.122555c  -6.54  -5.73c  +5.0,+0.0,+0.0
# iter:  31 08:24:59   -15.122555c  -6.68  -5.76c  +5.0,+0.0,+0.0
# iter:  32 08:25:28   -15.122554c  -6.85  -5.84c  +5.0,+0.0,+0.0
# iter:  33 08:25:57   -15.122555c  -7.01  -5.62c  +5.0,+0.0,+0.0
# iter:  34 08:26:26   -15.122555c  -7.15  -5.77c  +5.0,+0.0,+0.0
# iter:  35 08:26:55   -15.122555c  -7.31  -5.90c  +5.0,+0.0,+0.0
# iter:  36 08:27:24   -15.122555c  -7.48c -5.91c  +5.0,+0.0,+0.0
scf_steps: 36
energies:  # eV
  coulomb:         -13.041248
  zero:              0.092802
  xc:              -17.251552
  external:          0.000000
  kinetic:          15.078609
  spinorbit:         0.000000
  entropy:          -0.002330
  total:           -15.123720
  extrapolated:    -15.122555

dipole moment: [-5.833458, -10.103846, -14.467285]  # |e|*Ang

total magnetic moment: [4.983122, 0.004963, 0.000000]

local magnetic moments: [
  [ 4.361008, -0.000163,  0.000000],  # Mn 0
  [ 0.082740, -0.016330,  0.000000],  # I  1
  [ 0.082740, -0.016330, -0.000000]]  # I  2


Fermi level: -1.255 eV

kpt = [-0.429, -0.429, 0.000], weight = 0.005:
  Band      eig [eV]   occ [0-1]
     0       -82.222       1.000
   ...
    21        -3.984       1.000
    22        -3.938       1.000
    23        -3.838       1.000
    24        -3.719       1.000
    25        -3.673       1.000
    26        -3.600       1.000
    27        -2.163       1.000
    28        -2.077       1.000
    29        -0.554       0.001
    30        -0.166       0.000
    31        -0.159       0.000
    32         0.449       0.000
    33         0.637       0.000
    34         1.359       0.000
    35         2.245       0.000
    36         3.319       0.000
   ...
    41         4.771       0.000

kpt = [-0.429, -0.357, 0.000], weight = 0.005:
  Band      eig [eV]   occ [0-1]
     0       -82.222       1.000
   ...
    21        -4.118       1.000
    22        -3.998       1.000
    23        -3.804       1.000
    24        -3.746       1.000
    25        -3.608       1.000
    26        -3.566       1.000
    27        -2.324       1.000
    28        -2.115       1.000
    29        -0.416       0.000
    30        -0.180       0.000
    31        -0.155       0.000
    32         0.380       0.000
    33         0.580       0.000
    34         1.635       0.000
    35         2.505       0.000
    36         3.736       0.000
   ...
    41         4.776       0.000

kpt = [-0.429, -0.286, 0.000], weight = 0.005:
  Band      eig [eV]   occ [0-1]
     0       -82.222       1.000
   ...
    21        -4.222       1.000
    22        -4.004       1.000
    23        -3.791       1.000
    24        -3.772       1.000
    25        -3.577       1.000
    26        -3.543       1.000
    27        -2.387       1.000
    28        -2.134       1.000
    29        -0.351       0.000
    30        -0.191       0.000
    31        -0.157       0.000
    32         0.356       0.000
    33         0.551       0.000
    34         1.761       0.000
    35         2.630       0.000
    36         3.717       0.000
   ...
    41         5.290       0.000
(only showing first 3 out of 196 k-points)

Gap: 0.900 eV
Transition (v -> c):
  (s=0, k=90, n=28, [0.00, 0.00, 0.00]) -> (s=0, k=188, n=29, [0.50, 0.00, 0.00])
# Writing to Band_Conv/gsq-96.gpw (mode='')

---

timing:  # [seconds]
  Total: 1063.753  # ━━━━━━━━━━━━━━━━━━━━━━━━━━━━━━━━━━━━━━━━━━━━━━━━━━━━━━━━
  Init:    18.917  # ━
  SCF:   1044.201  # ━━━━━━━━━━━━━━━━━━━━━━━━━━━━━━━━━━━━━━━━━━━━━━━━━━━━━━━

Max RSS: 2767.918  # MiB
