#  __  _  _
# | _ |_)|_||  |
# |__||  | ||/\| - 24.1.0

User:   s194113@n-62-29-34
Date:   Mon May  6 18:46:41 2024
Arch:   x86_64
Pid:    15878
CWD:    /work3/s194113/10302/10302_NM/MnI2
Python: 3.8.5
gpaw:   /zhome/87/8/147075/venv-name/gpaw/gpaw (10808453a8)
_gpaw:  /zhome/87/8/147075/venv-name/gpaw/
        _gpaw.cpython-38-x86_64-linux-gnu.so (10808453a8)
ase:    /zhome/87/8/147075/venv-name/ase/ase (version 3.23.0b1-c36115a2db)
numpy:  /zhome/87/8/147075/venv-name/lib/python3.8/site-packages/numpy (version 1.24.4)
scipy:  /zhome/87/8/147075/venv-name/lib/python3.8/site-packages/scipy (version 1.10.1)
libxc:  4.3.4
units:  Angstrom and eV
cores: 18
OpenMP: False
OMP_NUM_THREADS: 1

---
input parameters:
  kpts: 
    density: 8.0
    gamma: True
  magmoms: [[4.4079912, 0, 0], [0.08032672, 0, 0], [0.08032672, 0, 0]]
  mixer: 
    backend: 'pulay'
    beta: 0.05
    method: 'sum'
    nmaxold: 5
    weight: 100
  mode: 
    name: 'pw'
    ecut: 800.0
    qspiral: array([0.34126984, 0.31746032, 0.        ])
  parallel: 
    kpt: None
    domain: 1
    band: 1
    order: 'kdb'
    stridebands: False
    augment_grids: False
    sl_auto: False
    sl_default: None
    sl_diagonalize: None
    sl_inverse_cholesky: None
    sl_lcao: None
    sl_lrtddft: None
    use_elpa: False
    elpasolver: '2stage'
    buffer_size: None
    gpu: False
  symmetry: 
    point_group: False
    time_reversal: False
  xc: 
    name: 'LDA'

#                        
#                        
#                        
#                        
#              I         
#                        
#                        
#        Mn              
#          I             
#                        
#                        
#                        
#                        
#                        

atoms: [  # symbols, positions [Ang] and initial magnetic moments
  [ Mn, [   0.000000,    0.000000,    7.649535], [ 4.408,  0.000,  0.000]], # 0
  [  I, [   2.082858,    1.202539,    9.299069], [ 0.080,  0.000,  0.000]], # 1
  [  I, [   0.000000,    2.405077,    6.000000], [ 0.080,  0.000,  0.000]]] # 2

cell: [  # Ang
#     x            y            z
  [   4.165716,    0.000000,    0.000000],
  [  -2.082858,    3.607616,    0.000000],
  [   0.000000,    0.000000,   15.299069]]

periodic: [True      , True      , False     ]
lengths:  [  4.165716,   4.165716,  15.299069]  # Ang
angles:   [ 90.000000,  90.000000, 120.000000]

symmetry:
  number of symmetries: 1
  rotations: [
    [[ 1,  0,  0], [ 0,  1,  0], [ 0,  0,  1]]]

bz sampling:
  number of bz points: 196
  number of ibz points: 196
  monkhorst-pack size: [14, 14, 1]
  monkhorst-pack shift: [0.03571428571428571, 0.03571428571428571, 0.0]
  points and weights: [
    [[ -0.42857143,  -0.42857143,   0.00000000], 0.00510204],  # 0
    [[ -0.42857143,  -0.35714286,   0.00000000], 0.00510204],  # 1
    [[ -0.42857143,  -0.28571429,   0.00000000], 0.00510204],  # 2
    [[ -0.42857143,  -0.21428571,   0.00000000], 0.00510204],  # 3
    [[ -0.42857143,  -0.14285714,   0.00000000], 0.00510204],  # 4
    [[ -0.42857143,  -0.07142857,   0.00000000], 0.00510204],  # 5
    [[ -0.42857143,   0.00000000,   0.00000000], 0.00510204],  # 6
    [[ -0.42857143,   0.07142857,   0.00000000], 0.00510204],  # 7
    [[ -0.42857143,   0.14285714,   0.00000000], 0.00510204],  # 8
    [[ -0.42857143,   0.21428571,   0.00000000], 0.00510204],  # 9
    # ...
    [[  0.50000000,   0.50000000,   0.00000000], 0.00510204]]  # 195

plane wave coefficients: 11927
cutoff: 800.0 eV

spin-components: 4  # (non-collinear spins)
bands: 42
valence electrons: 29.0
spin-degeneracy: 1
dtype: complex128

memory:
    wave functions: 3_105_768_960  # bytes  (172_542_720 per core)

parallelization:
    kpt:    18
    domain: 1
    band:   1

density:
  components: 4
  grid points: [ 28  28 100]
  charge: 0.0  # |e|

potential:
  grid points: [ 28  28 100]

species:
  Mn:
    name: Manganese
    id: 0d715a8018be061a6e9ea6f2d364ac92
    Z: 25.0
    valence: 15
    core: 10
    charge: 0.0
    file: /zhome/86/d/1666/PAW/gpaw-setups-0.9.20000/Mn.LDA.gz
    compensation charges: {type: gauss,
                           rc: 0.38,
                           lmax: 2}
    cutoffs: {filter: 2.14,
              core: 0.86}
    valence states:
      #              energy  rcut
      - 3s(2.00)   -85.387   1.275
      - 4s(2.00)    -5.282   1.275
      - 3p(6.00)   -54.493   1.281
      - 4p(0.00)    -1.471   1.281
      - 3d(5.00)    -7.009   1.138
      -  d          20.203   1.138
  
    # Using partial waves for Mn as LCAO basis

  I:
    name: Iodine
    id: b559721c0c096a7b4c8fc0e0f4de5cf4
    Z: 53.0
    valence: 7
    core: 46
    charge: 0.0
    file: /zhome/86/d/1666/PAW/gpaw-setups-0.9.20000/I.LDA.gz
    compensation charges: {type: gauss,
                           rc: 0.37,
                           lmax: 2}
    cutoffs: {filter: 2.06,
              core: 2.90}
    valence states:
      #              energy  rcut
      - 5s(2.00)   -17.626   1.164
      - 5p(5.00)    -7.241   1.164
      -  s           9.585   1.164
      -  p          19.970   1.164
      -  d           0.000   1.164
  
    # Using partial waves for I as LCAO basis

Reference energy: -418222.442431  # eV

eigensolver:
  name: 'Davidson'
  niter: 2
  converge_bands: 'occupied'
Density mixing:
  Method: sum
  Backend: pulay
  Linear mixing parameter: 0.05
  old densities: 5
  Damping of long wavelength oscillations: 100
occupation numbers:
  Fermi-Dirac:
    width: 0.1000  # eV
  

poisson solver:
  ecut: 6400.0  # eV

xc functional:
  name: None

convergence criteria:
- Maximum [total energy] change in last 3 cyles: 0.0005 eV / valence electron
- Maximum integral of absolute [dens]ity change: 0.0001 electrons / valence electron
- Maximum integral of absolute [eigenst]ate change: 4e-08 eV^2 / valence electron
maximum number of iterations: 333

#      iter     time        total  log10-change:
#                          energy   eigst   dens
# iter:   1 18:47:28   -14.618745                  +4.6,+0.0,+0.0
# iter:   2 18:47:57   -15.135575   -0.05  -1.49   +4.1,-0.0,+0.0
# iter:   3 18:48:27   -15.137776   -0.68  -1.52   +4.0,-0.0,-0.0
# iter:   4 18:48:56   -15.158211   -1.00  -1.56   +4.1,-0.0,+0.0
# iter:   5 18:49:26   -15.258442   -1.29  -1.75   +4.3,-0.0,+0.0
# iter:   6 18:49:56   -15.157369   -1.55  -2.14   +4.4,-0.0,+0.0
# iter:   7 18:50:25   -15.147425   -1.69  -2.30   +4.3,-0.0,+0.0
# iter:   8 18:50:55   -15.142108   -2.10  -2.24   +4.3,+0.0,+0.0
# iter:   9 18:51:24   -15.144837c  -2.32  -2.95   +4.3,+0.0,+0.0
# iter:  10 18:51:53   -15.142331c  -2.53  -2.89   +4.3,+0.0,+0.0
# iter:  11 18:52:23   -15.142468c  -2.76  -3.19   +4.3,+0.0,+0.0
# iter:  12 18:52:52   -15.142677c  -2.93  -3.26   +4.3,+0.0,+0.0
# iter:  13 18:53:21   -15.142583c  -3.12  -3.29   +4.3,+0.0,+0.0
# iter:  14 18:53:51   -15.142589c  -3.30  -3.40   +4.3,+0.0,+0.0
# iter:  15 18:54:20   -15.142638c  -3.47  -3.42   +4.3,+0.0,+0.0
# iter:  16 18:54:49   -15.142690c  -3.64  -3.46   +4.3,+0.0,-0.0
# iter:  17 18:55:19   -15.142736c  -3.81  -3.47   +4.3,+0.0,-0.0
# iter:  18 18:55:48   -15.142678c  -3.93  -3.47   +4.3,+0.0,+0.0
# iter:  19 18:56:17   -15.142665c  -4.12  -3.97   +4.3,+0.0,+0.0
# iter:  20 18:56:46   -15.142667c  -4.29  -4.42c  +4.3,+0.0,+0.0
# iter:  21 18:57:16   -15.142673c  -4.44  -4.41c  +4.3,+0.0,+0.0
# iter:  22 18:57:45   -15.142670c  -4.59  -4.36c  +4.3,+0.0,+0.0
# iter:  23 18:58:14   -15.142670c  -4.74  -4.61c  +4.3,+0.0,+0.0
# iter:  24 18:58:43   -15.142670c  -4.88  -4.40c  +4.3,+0.0,+0.0
# iter:  25 18:59:13   -15.142672c  -5.02  -4.65c  +4.3,+0.0,+0.0
# iter:  26 18:59:42   -15.142671c  -5.15  -4.80c  +4.3,+0.0,+0.0
# iter:  27 19:00:11   -15.142672c  -5.29  -4.74c  +4.3,+0.0,+0.0
# iter:  28 19:00:40   -15.142672c  -5.43  -4.91c  +4.3,+0.0,+0.0
# iter:  29 19:01:10   -15.142671c  -5.55  -4.95c  +4.3,+0.0,+0.0
# iter:  30 19:01:39   -15.142672c  -5.67  -4.71c  +4.3,+0.0,+0.0
# iter:  31 19:02:08   -15.142672c  -5.81  -5.53c  +4.3,+0.0,+0.0
# iter:  32 19:02:38   -15.142672c  -5.94  -5.62c  +4.3,+0.0,+0.0
# iter:  33 19:03:07   -15.142672c  -6.06  -5.64c  +4.3,+0.0,+0.0
# iter:  34 19:03:37   -15.142672c  -6.18  -5.88c  +4.3,+0.0,+0.0
# iter:  35 19:04:06   -15.142672c  -6.30  -5.90c  +4.3,+0.0,+0.0
# iter:  36 19:04:36   -15.142672c  -6.42  -5.88c  +4.3,+0.0,+0.0
# iter:  37 19:05:05   -15.142672c  -6.54  -5.75c  +4.3,+0.0,+0.0
# iter:  38 19:05:34   -15.142672c  -6.67  -5.82c  +4.3,+0.0,+0.0
# iter:  39 19:06:04   -15.142672c  -6.79  -5.93c  +4.3,+0.0,+0.0
# iter:  40 19:06:33   -15.142672c  -6.92  -6.03c  +4.3,+0.0,+0.0
# iter:  41 19:07:02   -15.142672c  -7.04  -5.98c  +4.3,+0.0,+0.0
# iter:  42 19:07:32   -15.142672c  -7.15  -5.96c  +4.3,+0.0,-0.0
# iter:  43 19:08:01   -15.142672c  -7.26  -5.98c  +4.3,+0.0,+0.0
# iter:  44 19:08:30   -15.142672c  -7.37  -6.06c  +4.3,+0.0,+0.0
# iter:  45 19:09:00   -15.142672c  -7.49c -6.02c  +4.3,+0.0,+0.0
scf_steps: 45
energies:  # eV
  coulomb:         -12.448079
  zero:              0.094418
  xc:              -17.137401
  external:          0.000000
  kinetic:          14.348849
  spinorbit:         0.000000
  entropy:          -0.000918
  total:           -15.143131
  extrapolated:    -15.142672

dipole moment: [-4.804550, -8.369055, -9.142420]  # |e|*Ang

total magnetic moment: [4.297506, 0.000262, 0.000000]

local magnetic moments: [
  [ 4.322248,  0.000001,  0.000000],  # Mn 0
  [-0.001953, -0.000000, -0.000000],  # I  1
  [ 0.001058, -0.001640, -0.000000]]  # I  2


Fermi level: -1.215 eV

kpt = [-0.429, -0.429, 0.000], weight = 0.005:
  Band      eig [eV]   occ [0-1]
     0       -82.167       1.000
   ...
    21        -4.135       1.000
    22        -4.093       1.000
    23        -3.730       1.000
    24        -3.686       1.000
    25        -3.549       1.000
    26        -3.471       1.000
    27        -2.264       1.000
    28        -2.141       1.000
    29        -0.290       0.000
    30        -0.244       0.000
    31        -0.155       0.000
    32         0.431       0.000
    33         0.487       0.000
    34         1.748       0.000
    35         2.497       0.000
    36         3.710       0.000
   ...
    41         4.908       0.000

kpt = [-0.429, -0.357, 0.000], weight = 0.005:
  Band      eig [eV]   occ [0-1]
     0       -82.167       1.000
   ...
    21        -3.982       1.000
    22        -3.943       1.000
    23        -3.741       1.000
    24        -3.660       1.000
    25        -3.506       1.000
    26        -3.352       1.000
    27        -2.279       1.000
    28        -2.039       1.000
    29        -0.360       0.000
    30        -0.252       0.000
    31        -0.169       0.000
    32         0.425       0.000
    33         0.527       0.000
    34         1.602       0.000
    35         2.417       0.000
    36         3.381       0.000
   ...
    41         4.759       0.000

kpt = [-0.429, -0.286, 0.000], weight = 0.005:
  Band      eig [eV]   occ [0-1]
     0       -82.167       1.000
   ...
    21        -3.916       1.000
    22        -3.752       1.000
    23        -3.697       1.000
    24        -3.544       1.000
    25        -3.442       1.000
    26        -3.255       1.000
    27        -2.239       1.000
    28        -1.956       0.999
    29        -0.462       0.001
    30        -0.258       0.000
    31        -0.167       0.000
    32         0.432       0.000
    33         0.541       0.000
    34         1.475       0.000
    35         2.305       0.000
    36         3.047       0.000
   ...
    41         4.604       0.000
(only showing first 3 out of 196 k-points)

Gap: 1.408 eV
Transition (v -> c):
  (s=0, k=47, n=28, [-0.21, -0.07, 0.00]) -> (s=0, k=158, n=29, [0.36, -0.14, 0.00])
# Writing to Band_Conv/gsq-56.gpw (mode='')

---

timing:  # [seconds]
  Total: 1338.980  # ━━━━━━━━━━━━━━━━━━━━━━━━━━━━━━━━━━━━━━━━━━━━━━━━━━━━━━━━
  Init:    18.946  # ━
  SCF:   1319.613  # ━━━━━━━━━━━━━━━━━━━━━━━━━━━━━━━━━━━━━━━━━━━━━━━━━━━━━━━

Max RSS: 2294.008  # MiB
