#  __  _  _
# | _ |_)|_||  |
# |__||  | ||/\| - 24.1.0

User:   s194113@n-62-29-34
Date:   Tue May  7 08:27:24 2024
Arch:   x86_64
Pid:    15878
CWD:    /work3/s194113/10302/10302_NM/MnI2
Python: 3.8.5
gpaw:   /zhome/87/8/147075/venv-name/gpaw/gpaw (10808453a8)
_gpaw:  /zhome/87/8/147075/venv-name/gpaw/
        _gpaw.cpython-38-x86_64-linux-gnu.so (10808453a8)
ase:    /zhome/87/8/147075/venv-name/ase/ase (version 3.23.0b1-c36115a2db)
numpy:  /zhome/87/8/147075/venv-name/lib/python3.8/site-packages/numpy (version 1.24.4)
scipy:  /zhome/87/8/147075/venv-name/lib/python3.8/site-packages/scipy (version 1.10.1)
libxc:  4.3.4
units:  Angstrom and eV
cores: 18
OpenMP: False
OMP_NUM_THREADS: 1

---
input parameters:
  kpts: 
    density: 8.0
    gamma: True
  magmoms: [[4.4079912, 0, 0], [0.08032672, 0, 0], [0.08032672, 0, 0]]
  mixer: 
    backend: 'pulay'
    beta: 0.05
    method: 'sum'
    nmaxold: 5
    weight: 100
  mode: 
    name: 'pw'
    ecut: 800.0
    qspiral: array([0.02325581, 0.02325581, 0.        ])
  parallel: 
    kpt: None
    domain: 1
    band: 1
    order: 'kdb'
    stridebands: False
    augment_grids: False
    sl_auto: False
    sl_default: None
    sl_diagonalize: None
    sl_inverse_cholesky: None
    sl_lcao: None
    sl_lrtddft: None
    use_elpa: False
    elpasolver: '2stage'
    buffer_size: None
    gpu: False
  symmetry: 
    point_group: False
    time_reversal: False
  xc: 
    name: 'LDA'

#                        
#                        
#                        
#                        
#              I         
#                        
#                        
#        Mn              
#          I             
#                        
#                        
#                        
#                        
#                        

atoms: [  # symbols, positions [Ang] and initial magnetic moments
  [ Mn, [   0.000000,    0.000000,    7.649535], [ 4.408,  0.000,  0.000]], # 0
  [  I, [   2.082858,    1.202539,    9.299069], [ 0.080,  0.000,  0.000]], # 1
  [  I, [   0.000000,    2.405077,    6.000000], [ 0.080,  0.000,  0.000]]] # 2

cell: [  # Ang
#     x            y            z
  [   4.165716,    0.000000,    0.000000],
  [  -2.082858,    3.607616,    0.000000],
  [   0.000000,    0.000000,   15.299069]]

periodic: [True      , True      , False     ]
lengths:  [  4.165716,   4.165716,  15.299069]  # Ang
angles:   [ 90.000000,  90.000000, 120.000000]

symmetry:
  number of symmetries: 1
  rotations: [
    [[ 1,  0,  0], [ 0,  1,  0], [ 0,  0,  1]]]

bz sampling:
  number of bz points: 196
  number of ibz points: 196
  monkhorst-pack size: [14, 14, 1]
  monkhorst-pack shift: [0.03571428571428571, 0.03571428571428571, 0.0]
  points and weights: [
    [[ -0.42857143,  -0.42857143,   0.00000000], 0.00510204],  # 0
    [[ -0.42857143,  -0.35714286,   0.00000000], 0.00510204],  # 1
    [[ -0.42857143,  -0.28571429,   0.00000000], 0.00510204],  # 2
    [[ -0.42857143,  -0.21428571,   0.00000000], 0.00510204],  # 3
    [[ -0.42857143,  -0.14285714,   0.00000000], 0.00510204],  # 4
    [[ -0.42857143,  -0.07142857,   0.00000000], 0.00510204],  # 5
    [[ -0.42857143,   0.00000000,   0.00000000], 0.00510204],  # 6
    [[ -0.42857143,   0.07142857,   0.00000000], 0.00510204],  # 7
    [[ -0.42857143,   0.14285714,   0.00000000], 0.00510204],  # 8
    [[ -0.42857143,   0.21428571,   0.00000000], 0.00510204],  # 9
    # ...
    [[  0.50000000,   0.50000000,   0.00000000], 0.00510204]]  # 195

plane wave coefficients: 11927
cutoff: 800.0 eV

spin-components: 4  # (non-collinear spins)
bands: 42
valence electrons: 29.0
spin-degeneracy: 1
dtype: complex128

memory:
    wave functions: 3_105_768_960  # bytes  (172_542_720 per core)

parallelization:
    kpt:    18
    domain: 1
    band:   1

density:
  components: 4
  grid points: [ 28  28 100]
  charge: 0.0  # |e|

potential:
  grid points: [ 28  28 100]

species:
  Mn:
    name: Manganese
    id: 0d715a8018be061a6e9ea6f2d364ac92
    Z: 25.0
    valence: 15
    core: 10
    charge: 0.0
    file: /zhome/86/d/1666/PAW/gpaw-setups-0.9.20000/Mn.LDA.gz
    compensation charges: {type: gauss,
                           rc: 0.38,
                           lmax: 2}
    cutoffs: {filter: 2.14,
              core: 0.86}
    valence states:
      #              energy  rcut
      - 3s(2.00)   -85.387   1.275
      - 4s(2.00)    -5.282   1.275
      - 3p(6.00)   -54.493   1.281
      - 4p(0.00)    -1.471   1.281
      - 3d(5.00)    -7.009   1.138
      -  d          20.203   1.138
  
    # Using partial waves for Mn as LCAO basis

  I:
    name: Iodine
    id: b559721c0c096a7b4c8fc0e0f4de5cf4
    Z: 53.0
    valence: 7
    core: 46
    charge: 0.0
    file: /zhome/86/d/1666/PAW/gpaw-setups-0.9.20000/I.LDA.gz
    compensation charges: {type: gauss,
                           rc: 0.37,
                           lmax: 2}
    cutoffs: {filter: 2.06,
              core: 2.90}
    valence states:
      #              energy  rcut
      - 5s(2.00)   -17.626   1.164
      - 5p(5.00)    -7.241   1.164
      -  s           9.585   1.164
      -  p          19.970   1.164
      -  d           0.000   1.164
  
    # Using partial waves for I as LCAO basis

Reference energy: -418222.442431  # eV

eigensolver:
  name: 'Davidson'
  niter: 2
  converge_bands: 'occupied'
Density mixing:
  Method: sum
  Backend: pulay
  Linear mixing parameter: 0.05
  old densities: 5
  Damping of long wavelength oscillations: 100
occupation numbers:
  Fermi-Dirac:
    width: 0.1000  # eV
  

poisson solver:
  ecut: 6400.0  # eV

xc functional:
  name: None

convergence criteria:
- Maximum [total energy] change in last 3 cyles: 0.0005 eV / valence electron
- Maximum integral of absolute [dens]ity change: 0.0001 electrons / valence electron
- Maximum integral of absolute [eigenst]ate change: 4e-08 eV^2 / valence electron
maximum number of iterations: 333

#      iter     time        total  log10-change:
#                          energy   eigst   dens
# iter:   1 08:28:11   -15.209483                  +4.6,+0.0,+0.0
# iter:   2 08:28:41   -15.182172   -0.77  -1.49   +4.8,-0.0,-0.0
# iter:   3 08:29:10   -15.105002   -1.15  -1.51   +4.8,+0.0,-0.0
# iter:   4 08:29:40   -15.118882   -1.49  -1.60   +4.9,+0.0,-0.0
# iter:   5 08:30:09   -15.153910   -1.74  -1.79   +5.0,+0.0,-0.0
# iter:   6 08:30:38   -15.124945   -1.97  -2.29   +5.0,+0.0,-0.0
# iter:   7 08:31:08   -15.122023   -2.26  -2.41   +5.0,+0.0,-0.0
# iter:   8 08:31:37   -15.123589c  -2.59  -2.77   +5.0,+0.0,-0.0
# iter:   9 08:32:07   -15.123157c  -2.69  -2.78   +5.0,+0.0,-0.0
# iter:  10 08:32:35   -15.121907c  -3.07  -3.04   +5.0,+0.0,-0.0
# iter:  11 08:33:05   -15.121970c  -3.33  -3.48   +5.0,+0.0,-0.0
# iter:  12 08:33:34   -15.122028c  -3.52  -3.59   +5.0,+0.0,-0.0
# iter:  13 08:34:03   -15.122059c  -3.70  -3.51   +5.0,+0.0,-0.0
# iter:  14 08:34:32   -15.122026c  -3.88  -3.92   +5.0,+0.0,-0.0
# iter:  15 08:35:01   -15.122033c  -4.08  -4.13c  +5.0,+0.0,-0.0
# iter:  16 08:35:30   -15.122032c  -4.25  -4.15c  +5.0,+0.0,-0.0
# iter:  17 08:35:59   -15.122033c  -4.41  -4.12c  +5.0,+0.0,-0.0
# iter:  18 08:36:28   -15.122042c  -4.55  -4.18c  +5.0,+0.0,-0.0
# iter:  19 08:36:57   -15.122044c  -4.73  -4.96c  +5.0,+0.0,-0.0
# iter:  20 08:37:27   -15.122045c  -4.89  -4.97c  +5.0,+0.0,-0.0
# iter:  21 08:37:56   -15.122046c  -5.06  -4.89c  +5.0,+0.0,-0.0
# iter:  22 08:38:25   -15.122046c  -5.22  -4.83c  +5.0,+0.0,-0.0
# iter:  23 08:38:54   -15.122045c  -5.38  -4.89c  +5.0,+0.0,-0.0
# iter:  24 08:39:24   -15.122046c  -5.55  -4.99c  +5.0,+0.0,-0.0
# iter:  25 08:39:53   -15.122044c  -5.73  -4.83c  +5.0,+0.0,-0.0
# iter:  26 08:40:22   -15.122044c  -5.90  -5.10c  +5.0,+0.0,-0.0
# iter:  27 08:40:52   -15.122044c  -6.08  -5.05c  +5.0,+0.0,-0.0
# iter:  28 08:41:21   -15.122044c  -6.26  -5.12c  +5.0,+0.0,-0.0
# iter:  29 08:41:50   -15.122044c  -6.42  -5.19c  +5.0,+0.0,-0.0
# iter:  30 08:42:19   -15.122045c  -6.59  -5.25c  +5.0,+0.0,-0.0
# iter:  31 08:42:49   -15.122045c  -6.75  -5.38c  +5.0,+0.0,+0.0
# iter:  32 08:43:18   -15.122045c  -6.92  -5.46c  +5.0,+0.0,-0.0
# iter:  33 08:43:47   -15.122045c  -7.08  -5.50c  +5.0,+0.0,+0.0
# iter:  34 08:44:17   -15.122045c  -7.24  -5.69c  +5.0,+0.0,+0.0
# iter:  35 08:44:46   -15.122045c  -7.39  -5.74c  +5.0,+0.0,-0.0
# iter:  36 08:45:16   -15.122045c  -7.54c -5.87c  +5.0,+0.0,-0.0
scf_steps: 36
energies:  # eV
  coulomb:         -13.057174
  zero:              0.092704
  xc:              -17.254266
  external:          0.000000
  kinetic:          15.097884
  spinorbit:         0.000000
  entropy:          -0.002386
  total:           -15.123237
  extrapolated:    -15.122045

dipole moment: [-5.846768, -10.126899, -14.512324]  # |e|*Ang

total magnetic moment: [4.988932, 0.003766, -0.000000]

local magnetic moments: [
  [ 4.361715, -0.000122, -0.000000],  # Mn 0
  [ 0.084145, -0.012386,  0.000000],  # I  1
  [ 0.084145, -0.012386,  0.000000]]  # I  2


Fermi level: -1.255 eV

kpt = [-0.429, -0.429, 0.000], weight = 0.005:
  Band      eig [eV]   occ [0-1]
     0       -82.224       1.000
   ...
    21        -3.986       1.000
    22        -3.936       1.000
    23        -3.831       1.000
    24        -3.727       1.000
    25        -3.670       1.000
    26        -3.602       1.000
    27        -2.167       1.000
    28        -2.075       1.000
    29        -0.554       0.001
    30        -0.165       0.000
    31        -0.160       0.000
    32         0.447       0.000
    33         0.638       0.000
    34         1.365       0.000
    35         2.239       0.000
    36         3.360       0.000
   ...
    41         4.735       0.000

kpt = [-0.429, -0.357, 0.000], weight = 0.005:
  Band      eig [eV]   occ [0-1]
     0       -82.224       1.000
   ...
    21        -4.121       1.000
    22        -3.999       1.000
    23        -3.798       1.000
    24        -3.754       1.000
    25        -3.608       1.000
    26        -3.567       1.000
    27        -2.331       1.000
    28        -2.114       1.000
    29        -0.415       0.000
    30        -0.179       0.000
    31        -0.156       0.000
    32         0.377       0.000
    33         0.581       0.000
    34         1.642       0.000
    35         2.510       0.000
    36         3.750       0.000
   ...
    41         4.797       0.000

kpt = [-0.429, -0.286, 0.000], weight = 0.005:
  Band      eig [eV]   occ [0-1]
     0       -82.224       1.000
   ...
    21        -4.226       1.000
    22        -4.003       1.000
    23        -3.790       1.000
    24        -3.775       1.000
    25        -3.578       1.000
    26        -3.545       1.000
    27        -2.391       1.000
    28        -2.134       1.000
    29        -0.352       0.000
    30        -0.189       0.000
    31        -0.158       0.000
    32         0.355       0.000
    33         0.552       0.000
    34         1.764       0.000
    35         2.638       0.000
    36         3.712       0.000
   ...
    41         5.321       0.000
(only showing first 3 out of 196 k-points)

Gap: 0.897 eV
Transition (v -> c):
  (s=0, k=90, n=28, [0.00, 0.00, 0.00]) -> (s=0, k=188, n=29, [0.50, 0.00, 0.00])
# Writing to Band_Conv/gsq-97.gpw (mode='')

---

timing:  # [seconds]
  Total: 1071.667  # ━━━━━━━━━━━━━━━━━━━━━━━━━━━━━━━━━━━━━━━━━━━━━━━━━━━━━━━━
  Init:    19.193  # ━
  SCF:   1051.876  # ━━━━━━━━━━━━━━━━━━━━━━━━━━━━━━━━━━━━━━━━━━━━━━━━━━━━━━━

Max RSS: 2767.918  # MiB
