#  __  _  _
# | _ |_)|_||  |
# |__||  | ||/\| - 24.1.0

User:   s194113@n-62-29-25
Date:   Thu May  2 09:33:25 2024
Arch:   x86_64
Pid:    9729
CWD:    /work3/s194113/10302/10302_NM/MnI2
Python: 3.8.5
gpaw:   /zhome/87/8/147075/venv-name/gpaw/gpaw (10808453a8)
_gpaw:  /zhome/87/8/147075/venv-name/gpaw/
        _gpaw.cpython-38-x86_64-linux-gnu.so (10808453a8)
ase:    /zhome/87/8/147075/venv-name/ase/ase (version 3.23.0b1-c36115a2db)
numpy:  /zhome/87/8/147075/venv-name/lib/python3.8/site-packages/numpy (version 1.24.4)
scipy:  /zhome/87/8/147075/venv-name/lib/python3.8/site-packages/scipy (version 1.10.1)
libxc:  4.3.4
units:  Angstrom and eV
cores: 12
OpenMP: False
OMP_NUM_THREADS: 1

---
input parameters:
  kpts: 
    density: 8.0
    gamma: True
  magmoms: [[4.4079912, 0, 0], [0.08032672, 0, 0], [0.08032672, 0, 0]]
  mixer: 
    backend: 'pulay'
    beta: 0.05
    method: 'sum'
    nmaxold: 5
    weight: 100
  mode: 
    name: 'pw'
    ecut: 800.0
    qspiral: array([0.46825397, 0.06349206, 0.        ])
  parallel: 
    kpt: None
    domain: 1
    band: 1
    order: 'kdb'
    stridebands: False
    augment_grids: False
    sl_auto: False
    sl_default: None
    sl_diagonalize: None
    sl_inverse_cholesky: None
    sl_lcao: None
    sl_lrtddft: None
    use_elpa: False
    elpasolver: '2stage'
    buffer_size: None
    gpu: False
  symmetry: 
    point_group: False
    time_reversal: False
  xc: 
    name: 'LDA'

#                        
#                        
#                        
#                        
#              I         
#                        
#                        
#        Mn              
#          I             
#                        
#                        
#                        
#                        
#                        

atoms: [  # symbols, positions [Ang] and initial magnetic moments
  [ Mn, [   0.000000,    0.000000,    7.649535], [ 4.408,  0.000,  0.000]], # 0
  [  I, [   2.082858,    1.202539,    9.299069], [ 0.080,  0.000,  0.000]], # 1
  [  I, [   0.000000,    2.405077,    6.000000], [ 0.080,  0.000,  0.000]]] # 2

cell: [  # Ang
#     x            y            z
  [   4.165716,    0.000000,    0.000000],
  [  -2.082858,    3.607616,    0.000000],
  [   0.000000,    0.000000,   15.299069]]

periodic: [True      , True      , False     ]
lengths:  [  4.165716,   4.165716,  15.299069]  # Ang
angles:   [ 90.000000,  90.000000, 120.000000]

symmetry:
  number of symmetries: 1
  rotations: [
    [[ 1,  0,  0], [ 0,  1,  0], [ 0,  0,  1]]]

bz sampling:
  number of bz points: 196
  number of ibz points: 196
  monkhorst-pack size: [14, 14, 1]
  monkhorst-pack shift: [0.03571428571428571, 0.03571428571428571, 0.0]
  points and weights: [
    [[ -0.42857143,  -0.42857143,   0.00000000], 0.00510204],  # 0
    [[ -0.42857143,  -0.35714286,   0.00000000], 0.00510204],  # 1
    [[ -0.42857143,  -0.28571429,   0.00000000], 0.00510204],  # 2
    [[ -0.42857143,  -0.21428571,   0.00000000], 0.00510204],  # 3
    [[ -0.42857143,  -0.14285714,   0.00000000], 0.00510204],  # 4
    [[ -0.42857143,  -0.07142857,   0.00000000], 0.00510204],  # 5
    [[ -0.42857143,   0.00000000,   0.00000000], 0.00510204],  # 6
    [[ -0.42857143,   0.07142857,   0.00000000], 0.00510204],  # 7
    [[ -0.42857143,   0.14285714,   0.00000000], 0.00510204],  # 8
    [[ -0.42857143,   0.21428571,   0.00000000], 0.00510204],  # 9
    # ...
    [[  0.50000000,   0.50000000,   0.00000000], 0.00510204]]  # 195

plane wave coefficients: 11927
cutoff: 800.0 eV

spin-components: 4  # (non-collinear spins)
bands: 42
valence electrons: 29.0
spin-degeneracy: 1
dtype: complex128

memory:
    wave functions: 3_105_768_960  # bytes  (258_814_080 per core)

parallelization:
    kpt:    12
    domain: 1
    band:   1

density:
  components: 4
  grid points: [ 28  28 100]
  charge: 0.0  # |e|

potential:
  grid points: [ 28  28 100]

species:
  Mn:
    name: Manganese
    id: 0d715a8018be061a6e9ea6f2d364ac92
    Z: 25.0
    valence: 15
    core: 10
    charge: 0.0
    file: /zhome/86/d/1666/PAW/gpaw-setups-0.9.20000/Mn.LDA.gz
    compensation charges: {type: gauss,
                           rc: 0.38,
                           lmax: 2}
    cutoffs: {filter: 2.14,
              core: 0.86}
    valence states:
      #              energy  rcut
      - 3s(2.00)   -85.387   1.275
      - 4s(2.00)    -5.282   1.275
      - 3p(6.00)   -54.493   1.281
      - 4p(0.00)    -1.471   1.281
      - 3d(5.00)    -7.009   1.138
      -  d          20.203   1.138
  
    # Using partial waves for Mn as LCAO basis

  I:
    name: Iodine
    id: b559721c0c096a7b4c8fc0e0f4de5cf4
    Z: 53.0
    valence: 7
    core: 46
    charge: 0.0
    file: /zhome/86/d/1666/PAW/gpaw-setups-0.9.20000/I.LDA.gz
    compensation charges: {type: gauss,
                           rc: 0.37,
                           lmax: 2}
    cutoffs: {filter: 2.06,
              core: 2.90}
    valence states:
      #              energy  rcut
      - 5s(2.00)   -17.626   1.164
      - 5p(5.00)    -7.241   1.164
      -  s           9.585   1.164
      -  p          19.970   1.164
      -  d           0.000   1.164
  
    # Using partial waves for I as LCAO basis

Reference energy: -418222.442431  # eV

eigensolver:
  name: 'Davidson'
  niter: 2
  converge_bands: 'occupied'
Density mixing:
  Method: sum
  Backend: pulay
  Linear mixing parameter: 0.05
  old densities: 5
  Damping of long wavelength oscillations: 100
occupation numbers:
  Fermi-Dirac:
    width: 0.1000  # eV
  

poisson solver:
  ecut: 6400.0  # eV

xc functional:
  name: None

convergence criteria:
- Maximum [total energy] change in last 3 cyles: 0.0005 eV / valence electron
- Maximum integral of absolute [dens]ity change: 0.0001 electrons / valence electron
- Maximum integral of absolute [eigenst]ate change: 4e-08 eV^2 / valence electron
maximum number of iterations: 333

#      iter     time        total  log10-change:
#                          energy   eigst   dens
# iter:   1 09:34:34   -14.772894                  +4.6,+0.0,+0.0
# iter:   2 09:35:17   -15.151213   -0.15  -1.49   +4.1,-0.0,-0.0
# iter:   3 09:36:01   -15.138091   -0.77  -1.52   +4.1,-0.0,-0.0
# iter:   4 09:36:45   -15.154372   -1.06  -1.56   +4.2,-0.0,-0.0
# iter:   5 09:37:29   -15.244217   -1.36  -1.76   +4.4,-0.0,-0.0
# iter:   6 09:38:12   -15.156948   -1.64  -2.16   +4.5,-0.0,+0.0
# iter:   7 09:38:56   -15.156404   -1.63  -2.29   +4.4,+0.0,-0.0
# iter:   8 09:39:40   -15.138766   -2.16  -2.17   +4.3,+0.0,-0.0
# iter:   9 09:40:24   -15.138825   -2.45  -2.92   +4.4,+0.0,-0.0
# iter:  10 09:41:08   -15.140173c  -2.65  -3.04   +4.4,+0.0,-0.0
# iter:  11 09:41:52   -15.138869c  -2.84  -2.94   +4.4,+0.0,+0.0
# iter:  12 09:42:35   -15.138964c  -3.06  -3.42   +4.4,+0.0,-0.0
# iter:  13 09:43:19   -15.139000c  -3.26  -3.50   +4.4,+0.0,+0.0
# iter:  14 09:44:02   -15.139107c  -3.43  -3.54   +4.4,+0.0,-0.0
# iter:  15 09:44:46   -15.139067c  -3.62  -3.56   +4.4,+0.0,-0.0
# iter:  16 09:45:29   -15.139062c  -3.79  -3.64   +4.4,+0.0,+0.0
# iter:  17 09:46:13   -15.139084c  -3.95  -3.70   +4.4,+0.0,+0.0
# iter:  18 09:46:56   -15.139064c  -4.12  -3.93   +4.4,+0.0,+0.0
# iter:  19 09:47:40   -15.139062c  -4.29  -4.14c  +4.4,+0.0,+0.0
# iter:  20 09:48:23   -15.139065c  -4.44  -4.15c  +4.4,+0.0,+0.0
# iter:  21 09:49:07   -15.139061c  -4.59  -4.33c  +4.4,+0.0,+0.0
# iter:  22 09:49:51   -15.139061c  -4.75  -4.30c  +4.4,+0.0,+0.0
# iter:  23 09:50:34   -15.139070c  -4.86  -4.30c  +4.4,+0.0,-0.0
# iter:  24 09:51:18   -15.139063c  -5.03  -4.46c  +4.4,+0.0,+0.0
# iter:  25 09:52:02   -15.139063c  -5.18  -4.73c  +4.4,+0.0,+0.0
# iter:  26 09:52:45   -15.139065c  -5.32  -4.88c  +4.4,+0.0,-0.0
# iter:  27 09:53:29   -15.139063c  -5.46  -4.99c  +4.4,+0.0,+0.0
# iter:  28 09:54:12   -15.139064c  -5.60  -4.93c  +4.4,+0.0,+0.0
# iter:  29 09:54:56   -15.139064c  -5.73  -5.61c  +4.4,+0.0,+0.0
# iter:  30 09:55:39   -15.139064c  -5.87  -5.59c  +4.4,+0.0,+0.0
# iter:  31 09:56:23   -15.139064c  -6.00  -5.69c  +4.4,+0.0,+0.0
# iter:  32 09:57:06   -15.139064c  -6.12  -5.48c  +4.4,+0.0,+0.0
# iter:  33 09:57:50   -15.139064c  -6.25  -5.55c  +4.4,+0.0,+0.0
# iter:  34 09:58:33   -15.139064c  -6.38  -5.52c  +4.4,+0.0,+0.0
# iter:  35 09:59:16   -15.139064c  -6.51  -5.64c  +4.4,+0.0,+0.0
# iter:  36 10:00:00   -15.139064c  -6.63  -5.66c  +4.4,+0.0,+0.0
# iter:  37 10:00:43   -15.139064c  -6.76  -5.68c  +4.4,+0.0,-0.0
# iter:  38 10:01:27   -15.139064c  -6.89  -5.70c  +4.4,+0.0,+0.0
# iter:  39 10:02:10   -15.139064c  -7.01  -5.96c  +4.4,+0.0,-0.0
# iter:  40 10:02:53   -15.139064c  -7.13  -6.05c  +4.4,+0.0,-0.0
# iter:  41 10:03:37   -15.139064c  -7.25  -6.09c  +4.4,+0.0,-0.0
# iter:  42 10:04:20   -15.139064c  -7.38  -5.99c  +4.4,+0.0,-0.0
# iter:  43 10:05:03   -15.139064c  -7.50c -6.23c  +4.4,+0.0,-0.0
scf_steps: 43
energies:  # eV
  coulomb:         -12.525231
  zero:              0.094222
  xc:              -17.151984
  external:          0.000000
  kinetic:          14.444557
  spinorbit:         0.000000
  entropy:          -0.001256
  total:           -15.139692
  extrapolated:    -15.139064

dipole moment: [-4.678365, -8.780556, -9.606813]  # |e|*Ang

total magnetic moment: [4.386369, 0.000717, -0.000000]

local magnetic moments: [
  [ 4.327855, -0.000008, -0.000000],  # Mn 0
  [-0.022864,  0.000001, -0.000000],  # I  1
  [ 0.022410, -0.004530,  0.000000]]  # I  2


Fermi level: -1.211 eV

kpt = [-0.429, -0.429, 0.000], weight = 0.005:
  Band      eig [eV]   occ [0-1]
     0       -82.175       1.000
   ...
    21        -4.096       1.000
    22        -3.865       1.000
    23        -3.811       1.000
    24        -3.761       1.000
    25        -3.458       1.000
    26        -3.401       1.000
    27        -2.243       1.000
    28        -2.069       1.000
    29        -0.355       0.000
    30        -0.282       0.000
    31        -0.143       0.000
    32         0.415       0.000
    33         0.563       0.000
    34         1.603       0.000
    35         2.314       0.000
    36         3.487       0.000
   ...
    41         4.856       0.000

kpt = [-0.429, -0.357, 0.000], weight = 0.005:
  Band      eig [eV]   occ [0-1]
     0       -82.175       1.000
   ...
    21        -3.968       1.000
    22        -3.822       1.000
    23        -3.695       1.000
    24        -3.650       1.000
    25        -3.420       1.000
    26        -3.313       1.000
    27        -2.322       1.000
    28        -1.960       0.999
    29        -0.404       0.000
    30        -0.266       0.000
    31        -0.145       0.000
    32         0.391       0.000
    33         0.568       0.000
    34         1.574       0.000
    35         2.297       0.000
    36         3.159       0.000
   ...
    41         4.982       0.000

kpt = [-0.429, -0.286, 0.000], weight = 0.005:
  Band      eig [eV]   occ [0-1]
     0       -82.175       1.000
   ...
    21        -3.914       1.000
    22        -3.682       1.000
    23        -3.573       1.000
    24        -3.563       1.000
    25        -3.402       1.000
    26        -3.208       1.000
    27        -2.384       1.000
    28        -1.915       0.999
    29        -0.415       0.000
    30        -0.230       0.000
    31        -0.185       0.000
    32         0.329       0.000
    33         0.560       0.000
    34         1.699       0.000
    35         2.446       0.000
    36         3.123       0.000
   ...
    41         4.954       0.000
(only showing first 3 out of 196 k-points)

Gap: 1.187 eV
Transition (v -> c):
  (s=0, k=90, n=28, [0.00, 0.00, 0.00]) -> (s=0, k=90, n=29, [0.00, 0.00, 0.00])
# Writing to Band_Conv/gsq-40.gpw (mode='')

