#  __  _  _
# | _ |_)|_||  |
# |__||  | ||/\| - 24.1.0

User:   s194113@n-62-29-34
Date:   Mon May  6 08:27:47 2024
Arch:   x86_64
Pid:    15878
CWD:    /work3/s194113/10302/10302_NM/MnI2
Python: 3.8.5
gpaw:   /zhome/87/8/147075/venv-name/gpaw/gpaw (10808453a8)
_gpaw:  /zhome/87/8/147075/venv-name/gpaw/
        _gpaw.cpython-38-x86_64-linux-gnu.so (10808453a8)
ase:    /zhome/87/8/147075/venv-name/ase/ase (version 3.23.0b1-c36115a2db)
numpy:  /zhome/87/8/147075/venv-name/lib/python3.8/site-packages/numpy (version 1.24.4)
scipy:  /zhome/87/8/147075/venv-name/lib/python3.8/site-packages/scipy (version 1.10.1)
libxc:  4.3.4
units:  Angstrom and eV
cores: 18
OpenMP: False
OMP_NUM_THREADS: 1

---
input parameters:
  kpts: 
    density: 8.0
    gamma: True
  magmoms: [[4.4079912, 0, 0], [0.08032672, 0, 0], [0.08032672, 0, 0]]
  mixer: 
    backend: 'pulay'
    beta: 0.05
    method: 'sum'
    nmaxold: 5
    weight: 100
  mode: 
    name: 'pw'
    ecut: 800.0
    qspiral: array([0.375, 0.   , 0.   ])
  parallel: 
    kpt: None
    domain: 1
    band: 1
    order: 'kdb'
    stridebands: False
    augment_grids: False
    sl_auto: False
    sl_default: None
    sl_diagonalize: None
    sl_inverse_cholesky: None
    sl_lcao: None
    sl_lrtddft: None
    use_elpa: False
    elpasolver: '2stage'
    buffer_size: None
    gpu: False
  symmetry: 
    point_group: False
    time_reversal: False
  xc: 
    name: 'LDA'

#                        
#                        
#                        
#                        
#              I         
#                        
#                        
#        Mn              
#          I             
#                        
#                        
#                        
#                        
#                        

atoms: [  # symbols, positions [Ang] and initial magnetic moments
  [ Mn, [   0.000000,    0.000000,    7.649535], [ 4.408,  0.000,  0.000]], # 0
  [  I, [   2.082858,    1.202539,    9.299069], [ 0.080,  0.000,  0.000]], # 1
  [  I, [   0.000000,    2.405077,    6.000000], [ 0.080,  0.000,  0.000]]] # 2

cell: [  # Ang
#     x            y            z
  [   4.165716,    0.000000,    0.000000],
  [  -2.082858,    3.607616,    0.000000],
  [   0.000000,    0.000000,   15.299069]]

periodic: [True      , True      , False     ]
lengths:  [  4.165716,   4.165716,  15.299069]  # Ang
angles:   [ 90.000000,  90.000000, 120.000000]

symmetry:
  number of symmetries: 1
  rotations: [
    [[ 1,  0,  0], [ 0,  1,  0], [ 0,  0,  1]]]

bz sampling:
  number of bz points: 196
  number of ibz points: 196
  monkhorst-pack size: [14, 14, 1]
  monkhorst-pack shift: [0.03571428571428571, 0.03571428571428571, 0.0]
  points and weights: [
    [[ -0.42857143,  -0.42857143,   0.00000000], 0.00510204],  # 0
    [[ -0.42857143,  -0.35714286,   0.00000000], 0.00510204],  # 1
    [[ -0.42857143,  -0.28571429,   0.00000000], 0.00510204],  # 2
    [[ -0.42857143,  -0.21428571,   0.00000000], 0.00510204],  # 3
    [[ -0.42857143,  -0.14285714,   0.00000000], 0.00510204],  # 4
    [[ -0.42857143,  -0.07142857,   0.00000000], 0.00510204],  # 5
    [[ -0.42857143,   0.00000000,   0.00000000], 0.00510204],  # 6
    [[ -0.42857143,   0.07142857,   0.00000000], 0.00510204],  # 7
    [[ -0.42857143,   0.14285714,   0.00000000], 0.00510204],  # 8
    [[ -0.42857143,   0.21428571,   0.00000000], 0.00510204],  # 9
    # ...
    [[  0.50000000,   0.50000000,   0.00000000], 0.00510204]]  # 195

plane wave coefficients: 11927
cutoff: 800.0 eV

spin-components: 4  # (non-collinear spins)
bands: 42
valence electrons: 29.0
spin-degeneracy: 1
dtype: complex128

memory:
    wave functions: 3_105_768_960  # bytes  (172_542_720 per core)

parallelization:
    kpt:    18
    domain: 1
    band:   1

density:
  components: 4
  grid points: [ 28  28 100]
  charge: 0.0  # |e|

potential:
  grid points: [ 28  28 100]

species:
  Mn:
    name: Manganese
    id: 0d715a8018be061a6e9ea6f2d364ac92
    Z: 25.0
    valence: 15
    core: 10
    charge: 0.0
    file: /zhome/86/d/1666/PAW/gpaw-setups-0.9.20000/Mn.LDA.gz
    compensation charges: {type: gauss,
                           rc: 0.38,
                           lmax: 2}
    cutoffs: {filter: 2.14,
              core: 0.86}
    valence states:
      #              energy  rcut
      - 3s(2.00)   -85.387   1.275
      - 4s(2.00)    -5.282   1.275
      - 3p(6.00)   -54.493   1.281
      - 4p(0.00)    -1.471   1.281
      - 3d(5.00)    -7.009   1.138
      -  d          20.203   1.138
  
    # Using partial waves for Mn as LCAO basis

  I:
    name: Iodine
    id: b559721c0c096a7b4c8fc0e0f4de5cf4
    Z: 53.0
    valence: 7
    core: 46
    charge: 0.0
    file: /zhome/86/d/1666/PAW/gpaw-setups-0.9.20000/I.LDA.gz
    compensation charges: {type: gauss,
                           rc: 0.37,
                           lmax: 2}
    cutoffs: {filter: 2.06,
              core: 2.90}
    valence states:
      #              energy  rcut
      - 5s(2.00)   -17.626   1.164
      - 5p(5.00)    -7.241   1.164
      -  s           9.585   1.164
      -  p          19.970   1.164
      -  d           0.000   1.164
  
    # Using partial waves for I as LCAO basis

Reference energy: -418222.442431  # eV

eigensolver:
  name: 'Davidson'
  niter: 2
  converge_bands: 'occupied'
Density mixing:
  Method: sum
  Backend: pulay
  Linear mixing parameter: 0.05
  old densities: 5
  Damping of long wavelength oscillations: 100
occupation numbers:
  Fermi-Dirac:
    width: 0.1000  # eV
  

poisson solver:
  ecut: 6400.0  # eV

xc functional:
  name: None

convergence criteria:
- Maximum [total energy] change in last 3 cyles: 0.0005 eV / valence electron
- Maximum integral of absolute [dens]ity change: 0.0001 electrons / valence electron
- Maximum integral of absolute [eigenst]ate change: 4e-08 eV^2 / valence electron
maximum number of iterations: 333

#      iter     time        total  log10-change:
#                          energy   eigst   dens
# iter:   1 08:28:34   -15.004215                  +4.6,+0.0,+0.0
# iter:   2 08:29:04   -15.179120   -0.34  -1.49   +4.3,-0.0,-0.0
# iter:   3 08:29:34   -15.139972   -0.92  -1.52   +4.3,-0.0,+0.0
# iter:   4 08:30:03   -15.149275   -1.17  -1.56   +4.4,+0.0,+0.0
# iter:   5 08:30:33   -15.220433   -1.48  -1.77   +4.6,+0.0,+0.0
# iter:   6 08:31:02   -15.173222   -1.82  -2.20   +4.6,+0.0,-0.0
# iter:   7 08:31:32   -15.142450   -1.74  -2.27   +4.6,+0.0,+0.0
# iter:   8 08:32:02   -15.139619   -2.31  -2.30   +4.6,+0.0,+0.0
# iter:   9 08:32:31   -15.138942c  -2.53  -2.89   +4.6,+0.0,+0.0
# iter:  10 08:33:01   -15.138506c  -2.81  -2.88   +4.6,+0.0,+0.0
# iter:  11 08:33:30   -15.138609c  -3.01  -3.08   +4.6,+0.0,-0.0
# iter:  12 08:34:00   -15.138581c  -3.20  -3.41   +4.6,+0.0,-0.0
# iter:  13 08:34:29   -15.138580c  -3.40  -3.54   +4.6,+0.0,+0.0
# iter:  14 08:34:59   -15.138631c  -3.58  -3.60   +4.6,+0.0,+0.0
# iter:  15 08:35:29   -15.138637c  -3.77  -3.70   +4.6,+0.0,+0.0
# iter:  16 08:35:58   -15.138635c  -3.94  -3.86   +4.6,+0.0,+0.0
# iter:  17 08:36:28   -15.138636c  -4.11  -3.89   +4.6,+0.0,+0.0
# iter:  18 08:36:57   -15.138638c  -4.28  -3.90   +4.6,+0.0,+0.0
# iter:  19 08:37:27   -15.138645c  -4.44  -3.94   +4.6,+0.0,+0.0
# iter:  20 08:37:56   -15.138643c  -4.61  -4.33c  +4.6,+0.0,+0.0
# iter:  21 08:38:26   -15.138641c  -4.77  -4.49c  +4.6,+0.0,+0.0
# iter:  22 08:38:56   -15.138641c  -4.93  -4.78c  +4.6,+0.0,+0.0
# iter:  23 08:39:25   -15.138641c  -5.09  -4.90c  +4.6,+0.0,+0.0
# iter:  24 08:39:54   -15.138641c  -5.23  -4.89c  +4.6,+0.0,+0.0
# iter:  25 08:40:24   -15.138641c  -5.37  -4.93c  +4.6,+0.0,+0.0
# iter:  26 08:40:54   -15.138642c  -5.52  -4.94c  +4.6,+0.0,+0.0
# iter:  27 08:41:23   -15.138641c  -5.66  -4.97c  +4.6,+0.0,+0.0
# iter:  28 08:41:53   -15.138642c  -5.81  -5.32c  +4.6,+0.0,+0.0
# iter:  29 08:42:22   -15.138642c  -5.94  -5.52c  +4.6,+0.0,+0.0
# iter:  30 08:42:52   -15.138642c  -6.08  -5.60c  +4.6,+0.0,+0.0
# iter:  31 08:43:21   -15.138642c  -6.22  -5.75c  +4.6,+0.0,+0.0
# iter:  32 08:43:51   -15.138642c  -6.36  -5.92c  +4.6,+0.0,+0.0
# iter:  33 08:44:20   -15.138642c  -6.48  -6.08c  +4.6,+0.0,+0.0
# iter:  34 08:44:50   -15.138642c  -6.61  -6.15c  +4.6,+0.0,+0.0
# iter:  35 08:45:20   -15.138642c  -6.75  -6.18c  +4.6,+0.0,+0.0
# iter:  36 08:45:49   -15.138642c  -6.88  -6.06c  +4.6,+0.0,+0.0
# iter:  37 08:46:19   -15.138642c  -7.01  -6.38c  +4.6,+0.0,+0.0
# iter:  38 08:46:48   -15.138642c  -7.14  -6.47c  +4.6,+0.0,+0.0
# iter:  39 08:47:18   -15.138642c  -7.26  -6.46c  +4.6,+0.0,+0.0
# iter:  40 08:47:47   -15.138642c  -7.40  -6.46c  +4.6,+0.0,+0.0
# iter:  41 08:48:17   -15.138642c  -7.53c -6.45c  +4.6,+0.0,+0.0
scf_steps: 41
energies:  # eV
  coulomb:         -12.554487
  zero:              0.094138
  xc:              -17.159402
  external:          0.000000
  kinetic:          14.481738
  spinorbit:         0.000000
  entropy:          -0.001257
  total:           -15.139270
  extrapolated:    -15.138642

dipole moment: [-5.023251, -9.222371, -11.151326]  # |e|*Ang

total magnetic moment: [4.574549, 0.007906, 0.000000]

local magnetic moments: [
  [ 4.331103, -0.000247,  0.000000],  # Mn 0
  [-0.010218, -0.034460,  0.000000],  # I  1
  [ 0.031590, -0.017146,  0.000000]]  # I  2


Fermi level: -1.225 eV

kpt = [-0.429, -0.429, 0.000], weight = 0.005:
  Band      eig [eV]   occ [0-1]
     0       -82.179       1.000
   ...
    21        -3.986       1.000
    22        -3.898       1.000
    23        -3.796       1.000
    24        -3.732       1.000
    25        -3.470       1.000
    26        -3.411       1.000
    27        -2.214       1.000
    28        -2.032       1.000
    29        -0.466       0.001
    30        -0.223       0.000
    31        -0.142       0.000
    32         0.455       0.000
    33         0.571       0.000
    34         1.443       0.000
    35         2.331       0.000
    36         3.073       0.000
   ...
    41         5.293       0.000

kpt = [-0.429, -0.357, 0.000], weight = 0.005:
  Band      eig [eV]   occ [0-1]
     0       -82.179       1.000
   ...
    21        -3.939       1.000
    22        -3.880       1.000
    23        -3.752       1.000
    24        -3.631       1.000
    25        -3.464       1.000
    26        -3.356       1.000
    27        -2.293       1.000
    28        -1.989       1.000
    29        -0.439       0.000
    30        -0.220       0.000
    31        -0.148       0.000
    32         0.436       0.000
    33         0.536       0.000
    34         1.524       0.000
    35         2.317       0.000
    36         3.085       0.000
   ...
    41         5.013       0.000

kpt = [-0.429, -0.286, 0.000], weight = 0.005:
  Band      eig [eV]   occ [0-1]
     0       -82.179       1.000
   ...
    21        -3.980       1.000
    22        -3.806       1.000
    23        -3.745       1.000
    24        -3.580       1.000
    25        -3.467       1.000
    26        -3.289       1.000
    27        -2.348       1.000
    28        -2.019       1.000
    29        -0.360       0.000
    30        -0.221       0.000
    31        -0.181       0.000
    32         0.355       0.000
    33         0.524       0.000
    34         1.782       0.000
    35         2.477       0.000
    36         3.389       0.000
   ...
    41         5.172       0.000
(only showing first 3 out of 196 k-points)

Gap: 1.060 eV
Transition (v -> c):
  (s=0, k=90, n=28, [0.00, 0.00, 0.00]) -> (s=0, k=188, n=29, [0.50, 0.00, 0.00])
# Writing to Band_Conv/gsq-27.gpw (mode='')

---

timing:  # [seconds]
  Total: 1229.492  # ━━━━━━━━━━━━━━━━━━━━━━━━━━━━━━━━━━━━━━━━━━━━━━━━━━━━━━━━
  Init:    18.902  # ━
  SCF:   1210.179  # ━━━━━━━━━━━━━━━━━━━━━━━━━━━━━━━━━━━━━━━━━━━━━━━━━━━━━━━

Max RSS: 1356.578  # MiB
