#  __  _  _
# | _ |_)|_||  |
# |__||  | ||/\| - 24.1.0

User:   s194113@n-62-29-34
Date:   Tue May  7 06:56:24 2024
Arch:   x86_64
Pid:    15878
CWD:    /work3/s194113/10302/10302_NM/MnI2
Python: 3.8.5
gpaw:   /zhome/87/8/147075/venv-name/gpaw/gpaw (10808453a8)
_gpaw:  /zhome/87/8/147075/venv-name/gpaw/
        _gpaw.cpython-38-x86_64-linux-gnu.so (10808453a8)
ase:    /zhome/87/8/147075/venv-name/ase/ase (version 3.23.0b1-c36115a2db)
numpy:  /zhome/87/8/147075/venv-name/lib/python3.8/site-packages/numpy (version 1.24.4)
scipy:  /zhome/87/8/147075/venv-name/lib/python3.8/site-packages/scipy (version 1.10.1)
libxc:  4.3.4
units:  Angstrom and eV
cores: 18
OpenMP: False
OMP_NUM_THREADS: 1

---
input parameters:
  kpts: 
    density: 8.0
    gamma: True
  magmoms: [[4.4079912, 0, 0], [0.08032672, 0, 0], [0.08032672, 0, 0]]
  mixer: 
    backend: 'pulay'
    beta: 0.05
    method: 'sum'
    nmaxold: 5
    weight: 100
  mode: 
    name: 'pw'
    ecut: 800.0
    qspiral: array([0.0620155, 0.0620155, 0.       ])
  parallel: 
    kpt: None
    domain: 1
    band: 1
    order: 'kdb'
    stridebands: False
    augment_grids: False
    sl_auto: False
    sl_default: None
    sl_diagonalize: None
    sl_inverse_cholesky: None
    sl_lcao: None
    sl_lrtddft: None
    use_elpa: False
    elpasolver: '2stage'
    buffer_size: None
    gpu: False
  symmetry: 
    point_group: False
    time_reversal: False
  xc: 
    name: 'LDA'

#                        
#                        
#                        
#                        
#              I         
#                        
#                        
#        Mn              
#          I             
#                        
#                        
#                        
#                        
#                        

atoms: [  # symbols, positions [Ang] and initial magnetic moments
  [ Mn, [   0.000000,    0.000000,    7.649535], [ 4.408,  0.000,  0.000]], # 0
  [  I, [   2.082858,    1.202539,    9.299069], [ 0.080,  0.000,  0.000]], # 1
  [  I, [   0.000000,    2.405077,    6.000000], [ 0.080,  0.000,  0.000]]] # 2

cell: [  # Ang
#     x            y            z
  [   4.165716,    0.000000,    0.000000],
  [  -2.082858,    3.607616,    0.000000],
  [   0.000000,    0.000000,   15.299069]]

periodic: [True      , True      , False     ]
lengths:  [  4.165716,   4.165716,  15.299069]  # Ang
angles:   [ 90.000000,  90.000000, 120.000000]

symmetry:
  number of symmetries: 1
  rotations: [
    [[ 1,  0,  0], [ 0,  1,  0], [ 0,  0,  1]]]

bz sampling:
  number of bz points: 196
  number of ibz points: 196
  monkhorst-pack size: [14, 14, 1]
  monkhorst-pack shift: [0.03571428571428571, 0.03571428571428571, 0.0]
  points and weights: [
    [[ -0.42857143,  -0.42857143,   0.00000000], 0.00510204],  # 0
    [[ -0.42857143,  -0.35714286,   0.00000000], 0.00510204],  # 1
    [[ -0.42857143,  -0.28571429,   0.00000000], 0.00510204],  # 2
    [[ -0.42857143,  -0.21428571,   0.00000000], 0.00510204],  # 3
    [[ -0.42857143,  -0.14285714,   0.00000000], 0.00510204],  # 4
    [[ -0.42857143,  -0.07142857,   0.00000000], 0.00510204],  # 5
    [[ -0.42857143,   0.00000000,   0.00000000], 0.00510204],  # 6
    [[ -0.42857143,   0.07142857,   0.00000000], 0.00510204],  # 7
    [[ -0.42857143,   0.14285714,   0.00000000], 0.00510204],  # 8
    [[ -0.42857143,   0.21428571,   0.00000000], 0.00510204],  # 9
    # ...
    [[  0.50000000,   0.50000000,   0.00000000], 0.00510204]]  # 195

plane wave coefficients: 11927
cutoff: 800.0 eV

spin-components: 4  # (non-collinear spins)
bands: 42
valence electrons: 29.0
spin-degeneracy: 1
dtype: complex128

memory:
    wave functions: 3_105_768_960  # bytes  (172_542_720 per core)

parallelization:
    kpt:    18
    domain: 1
    band:   1

density:
  components: 4
  grid points: [ 28  28 100]
  charge: 0.0  # |e|

potential:
  grid points: [ 28  28 100]

species:
  Mn:
    name: Manganese
    id: 0d715a8018be061a6e9ea6f2d364ac92
    Z: 25.0
    valence: 15
    core: 10
    charge: 0.0
    file: /zhome/86/d/1666/PAW/gpaw-setups-0.9.20000/Mn.LDA.gz
    compensation charges: {type: gauss,
                           rc: 0.38,
                           lmax: 2}
    cutoffs: {filter: 2.14,
              core: 0.86}
    valence states:
      #              energy  rcut
      - 3s(2.00)   -85.387   1.275
      - 4s(2.00)    -5.282   1.275
      - 3p(6.00)   -54.493   1.281
      - 4p(0.00)    -1.471   1.281
      - 3d(5.00)    -7.009   1.138
      -  d          20.203   1.138
  
    # Using partial waves for Mn as LCAO basis

  I:
    name: Iodine
    id: b559721c0c096a7b4c8fc0e0f4de5cf4
    Z: 53.0
    valence: 7
    core: 46
    charge: 0.0
    file: /zhome/86/d/1666/PAW/gpaw-setups-0.9.20000/I.LDA.gz
    compensation charges: {type: gauss,
                           rc: 0.37,
                           lmax: 2}
    cutoffs: {filter: 2.06,
              core: 2.90}
    valence states:
      #              energy  rcut
      - 5s(2.00)   -17.626   1.164
      - 5p(5.00)    -7.241   1.164
      -  s           9.585   1.164
      -  p          19.970   1.164
      -  d           0.000   1.164
  
    # Using partial waves for I as LCAO basis

Reference energy: -418222.442431  # eV

eigensolver:
  name: 'Davidson'
  niter: 2
  converge_bands: 'occupied'
Density mixing:
  Method: sum
  Backend: pulay
  Linear mixing parameter: 0.05
  old densities: 5
  Damping of long wavelength oscillations: 100
occupation numbers:
  Fermi-Dirac:
    width: 0.1000  # eV
  

poisson solver:
  ecut: 6400.0  # eV

xc functional:
  name: None

convergence criteria:
- Maximum [total energy] change in last 3 cyles: 0.0005 eV / valence electron
- Maximum integral of absolute [dens]ity change: 0.0001 electrons / valence electron
- Maximum integral of absolute [eigenst]ate change: 4e-08 eV^2 / valence electron
maximum number of iterations: 333

#      iter     time        total  log10-change:
#                          energy   eigst   dens
# iter:   1 06:57:11   -15.200956                  +4.6,+0.0,+0.0
# iter:   2 06:57:40   -15.186047   -0.73  -1.49   +4.7,-0.0,+0.0
# iter:   3 06:58:10   -15.111641   -1.15  -1.51   +4.8,+0.0,-0.0
# iter:   4 06:58:40   -15.121772   -1.48  -1.60   +4.8,+0.0,-0.0
# iter:   5 06:59:10   -15.161670   -1.73  -1.79   +4.9,+0.0,-0.0
# iter:   6 06:59:39   -15.127463   -1.93  -2.28   +5.0,+0.0,+0.0
# iter:   7 07:00:09   -15.126566   -2.26  -2.37   +4.9,+0.0,+0.0
# iter:   8 07:00:38   -15.153828   -2.31  -2.77   +4.9,+0.0,+0.0
# iter:   9 07:01:08   -15.133093   -2.76  -2.34   +4.9,+0.0,+0.0
# iter:  10 07:01:37   -15.125189   -2.70  -2.62   +4.9,+0.0,-0.0
# iter:  11 07:02:06   -15.125654c  -3.30  -3.48   +4.9,+0.0,+0.0
# iter:  12 07:02:36   -15.126202c  -3.42  -3.48   +4.9,+0.0,+0.0
# iter:  13 07:03:06   -15.126055c  -3.76  -3.17   +4.9,+0.0,+0.0
# iter:  14 07:03:35   -15.125853c  -3.91  -3.21   +4.9,+0.0,+0.0
# iter:  15 07:04:04   -15.125827c  -4.08  -3.34   +4.9,+0.0,-0.0
# iter:  16 07:04:34   -15.125672c  -4.13  -3.39   +4.9,+0.0,+0.0
# iter:  17 07:05:03   -15.125680c  -4.38  -3.68   +4.9,+0.0,+0.0
# iter:  18 07:05:32   -15.125687c  -4.58  -3.76   +4.9,+0.0,+0.0
# iter:  19 07:06:02   -15.125693c  -4.73  -3.84   +4.9,+0.0,+0.0
# iter:  20 07:06:32   -15.125691c  -4.90  -3.91   +4.9,+0.0,-0.0
# iter:  21 07:07:01   -15.125691c  -5.07  -4.03c  +4.9,+0.0,-0.0
# iter:  22 07:07:31   -15.125703c  -5.19  -4.07c  +4.9,+0.0,-0.0
# iter:  23 07:08:00   -15.125699c  -5.36  -4.16c  +4.9,+0.0,-0.0
# iter:  24 07:08:29   -15.125699c  -5.52  -4.28c  +4.9,+0.0,-0.0
# iter:  25 07:08:59   -15.125696c  -5.65  -4.32c  +4.9,+0.0,-0.0
# iter:  26 07:09:28   -15.125694c  -5.83  -4.69c  +4.9,+0.0,-0.0
# iter:  27 07:09:57   -15.125694c  -6.00  -5.16c  +4.9,+0.0,-0.0
# iter:  28 07:10:27   -15.125694c  -6.15  -5.24c  +4.9,+0.0,-0.0
# iter:  29 07:10:56   -15.125694c  -6.31  -5.29c  +4.9,+0.0,-0.0
# iter:  30 07:11:25   -15.125694c  -6.45  -5.44c  +4.9,+0.0,+0.0
# iter:  31 07:11:54   -15.125694c  -6.60  -5.61c  +4.9,+0.0,-0.0
# iter:  32 07:12:24   -15.125694c  -6.74  -5.64c  +4.9,+0.0,-0.0
# iter:  33 07:12:53   -15.125694c  -6.89  -5.87c  +4.9,+0.0,+0.0
# iter:  34 07:13:23   -15.125694c  -7.04  -5.91c  +4.9,+0.0,+0.0
# iter:  35 07:13:53   -15.125694c  -7.18  -5.99c  +4.9,+0.0,+0.0
# iter:  36 07:14:23   -15.125694c  -7.34  -6.14c  +4.9,+0.0,+0.0
# iter:  37 07:14:52   -15.125694c  -7.49c -6.47c  +4.9,+0.0,+0.0
scf_steps: 37
energies:  # eV
  coulomb:         -12.957600
  zero:              0.092977
  xc:              -17.236686
  external:          0.000000
  kinetic:          14.976621
  spinorbit:         0.000000
  entropy:          -0.002013
  total:           -15.126701
  extrapolated:    -15.125694

dipole moment: [-5.764514, -9.984431, -14.171606]  # |e|*Ang

total magnetic moment: [4.945093, 0.009219, 0.000000]

local magnetic moments: [
  [ 4.356622, -0.000288,  0.000000],  # Mn 0
  [ 0.073669, -0.030258, -0.000000],  # I  1
  [ 0.073669, -0.030258, -0.000000]]  # I  2


Fermi level: -1.258 eV

kpt = [-0.429, -0.429, 0.000], weight = 0.005:
  Band      eig [eV]   occ [0-1]
     0       -82.215       1.000
   ...
    21        -3.958       1.000
    22        -3.946       1.000
    23        -3.870       1.000
    24        -3.692       1.000
    25        -3.681       1.000
    26        -3.592       1.000
    27        -2.138       1.000
    28        -2.088       1.000
    29        -0.557       0.001
    30        -0.170       0.000
    31        -0.155       0.000
    32         0.463       0.000
    33         0.629       0.000
    34         1.327       0.000
    35         2.279       0.000
    36         3.141       0.000
   ...
    41         4.982       0.000

kpt = [-0.429, -0.357, 0.000], weight = 0.005:
  Band      eig [eV]   occ [0-1]
     0       -82.215       1.000
   ...
    21        -4.100       1.000
    22        -3.993       1.000
    23        -3.826       1.000
    24        -3.720       1.000
    25        -3.600       1.000
    26        -3.558       1.000
    27        -2.283       1.000
    28        -2.126       1.000
    29        -0.420       0.000
    30        -0.187       0.000
    31        -0.152       0.000
    32         0.399       0.000
    33         0.573       0.000
    34         1.586       0.000
    35         2.471       0.000
    36         3.613       0.000
   ...
    41         4.711       0.000

kpt = [-0.429, -0.286, 0.000], weight = 0.005:
  Band      eig [eV]   occ [0-1]
     0       -82.215       1.000
   ...
    21        -4.201       1.000
    22        -4.007       1.000
    23        -3.795       1.000
    24        -3.756       1.000
    25        -3.567       1.000
    26        -3.533       1.000
    27        -2.359       1.000
    28        -2.139       1.000
    29        -0.345       0.000
    30        -0.203       0.000
    31        -0.156       0.000
    32         0.369       0.000
    33         0.548       0.000
    34         1.741       0.000
    35         2.578       0.000
    36         3.745       0.000
   ...
    41         5.131       0.000
(only showing first 3 out of 196 k-points)

Gap: 0.925 eV
Transition (v -> c):
  (s=0, k=90, n=28, [0.00, 0.00, 0.00]) -> (s=0, k=188, n=29, [0.50, 0.00, 0.00])
# Writing to Band_Conv/gsq-92.gpw (mode='')

---

timing:  # [seconds]
  Total: 2246.512  # ━━━━━━━━━━━━━━━━━━━━━━━━━━━━━━━━━━━━━━━━━━━━━━━━━━━━━━━━
  Init:    18.884  # ╸
  SCF:   1088.991  # ━━━━━━━━━━━━━━━━━━━━━━━━━━━

Max RSS: 2767.918  # MiB
