#  __  _  _
# | _ |_)|_||  |
# |__||  | ||/\| - 24.1.0

User:   s194113@n-62-29-34
Date:   Tue May  7 01:26:53 2024
Arch:   x86_64
Pid:    15878
CWD:    /work3/s194113/10302/10302_NM/MnI2
Python: 3.8.5
gpaw:   /zhome/87/8/147075/venv-name/gpaw/gpaw (10808453a8)
_gpaw:  /zhome/87/8/147075/venv-name/gpaw/
        _gpaw.cpython-38-x86_64-linux-gnu.so (10808453a8)
ase:    /zhome/87/8/147075/venv-name/ase/ase (version 3.23.0b1-c36115a2db)
numpy:  /zhome/87/8/147075/venv-name/lib/python3.8/site-packages/numpy (version 1.24.4)
scipy:  /zhome/87/8/147075/venv-name/lib/python3.8/site-packages/scipy (version 1.10.1)
libxc:  4.3.4
units:  Angstrom and eV
cores: 18
OpenMP: False
OMP_NUM_THREADS: 1

---
input parameters:
  kpts: 
    density: 8.0
    gamma: True
  magmoms: [[4.4079912, 0, 0], [0.08032672, 0, 0], [0.08032672, 0, 0]]
  mixer: 
    backend: 'pulay'
    beta: 0.05
    method: 'sum'
    nmaxold: 5
    weight: 100
  mode: 
    name: 'pw'
    ecut: 800.0
    qspiral: array([0.19379845, 0.19379845, 0.        ])
  parallel: 
    kpt: None
    domain: 1
    band: 1
    order: 'kdb'
    stridebands: False
    augment_grids: False
    sl_auto: False
    sl_default: None
    sl_diagonalize: None
    sl_inverse_cholesky: None
    sl_lcao: None
    sl_lrtddft: None
    use_elpa: False
    elpasolver: '2stage'
    buffer_size: None
    gpu: False
  symmetry: 
    point_group: False
    time_reversal: False
  xc: 
    name: 'LDA'

#                        
#                        
#                        
#                        
#              I         
#                        
#                        
#        Mn              
#          I             
#                        
#                        
#                        
#                        
#                        

atoms: [  # symbols, positions [Ang] and initial magnetic moments
  [ Mn, [   0.000000,    0.000000,    7.649535], [ 4.408,  0.000,  0.000]], # 0
  [  I, [   2.082858,    1.202539,    9.299069], [ 0.080,  0.000,  0.000]], # 1
  [  I, [   0.000000,    2.405077,    6.000000], [ 0.080,  0.000,  0.000]]] # 2

cell: [  # Ang
#     x            y            z
  [   4.165716,    0.000000,    0.000000],
  [  -2.082858,    3.607616,    0.000000],
  [   0.000000,    0.000000,   15.299069]]

periodic: [True      , True      , False     ]
lengths:  [  4.165716,   4.165716,  15.299069]  # Ang
angles:   [ 90.000000,  90.000000, 120.000000]

symmetry:
  number of symmetries: 1
  rotations: [
    [[ 1,  0,  0], [ 0,  1,  0], [ 0,  0,  1]]]

bz sampling:
  number of bz points: 196
  number of ibz points: 196
  monkhorst-pack size: [14, 14, 1]
  monkhorst-pack shift: [0.03571428571428571, 0.03571428571428571, 0.0]
  points and weights: [
    [[ -0.42857143,  -0.42857143,   0.00000000], 0.00510204],  # 0
    [[ -0.42857143,  -0.35714286,   0.00000000], 0.00510204],  # 1
    [[ -0.42857143,  -0.28571429,   0.00000000], 0.00510204],  # 2
    [[ -0.42857143,  -0.21428571,   0.00000000], 0.00510204],  # 3
    [[ -0.42857143,  -0.14285714,   0.00000000], 0.00510204],  # 4
    [[ -0.42857143,  -0.07142857,   0.00000000], 0.00510204],  # 5
    [[ -0.42857143,   0.00000000,   0.00000000], 0.00510204],  # 6
    [[ -0.42857143,   0.07142857,   0.00000000], 0.00510204],  # 7
    [[ -0.42857143,   0.14285714,   0.00000000], 0.00510204],  # 8
    [[ -0.42857143,   0.21428571,   0.00000000], 0.00510204],  # 9
    # ...
    [[  0.50000000,   0.50000000,   0.00000000], 0.00510204]]  # 195

plane wave coefficients: 11927
cutoff: 800.0 eV

spin-components: 4  # (non-collinear spins)
bands: 42
valence electrons: 29.0
spin-degeneracy: 1
dtype: complex128

memory:
    wave functions: 3_105_768_960  # bytes  (172_542_720 per core)

parallelization:
    kpt:    18
    domain: 1
    band:   1

density:
  components: 4
  grid points: [ 28  28 100]
  charge: 0.0  # |e|

potential:
  grid points: [ 28  28 100]

species:
  Mn:
    name: Manganese
    id: 0d715a8018be061a6e9ea6f2d364ac92
    Z: 25.0
    valence: 15
    core: 10
    charge: 0.0
    file: /zhome/86/d/1666/PAW/gpaw-setups-0.9.20000/Mn.LDA.gz
    compensation charges: {type: gauss,
                           rc: 0.38,
                           lmax: 2}
    cutoffs: {filter: 2.14,
              core: 0.86}
    valence states:
      #              energy  rcut
      - 3s(2.00)   -85.387   1.275
      - 4s(2.00)    -5.282   1.275
      - 3p(6.00)   -54.493   1.281
      - 4p(0.00)    -1.471   1.281
      - 3d(5.00)    -7.009   1.138
      -  d          20.203   1.138
  
    # Using partial waves for Mn as LCAO basis

  I:
    name: Iodine
    id: b559721c0c096a7b4c8fc0e0f4de5cf4
    Z: 53.0
    valence: 7
    core: 46
    charge: 0.0
    file: /zhome/86/d/1666/PAW/gpaw-setups-0.9.20000/I.LDA.gz
    compensation charges: {type: gauss,
                           rc: 0.37,
                           lmax: 2}
    cutoffs: {filter: 2.06,
              core: 2.90}
    valence states:
      #              energy  rcut
      - 5s(2.00)   -17.626   1.164
      - 5p(5.00)    -7.241   1.164
      -  s           9.585   1.164
      -  p          19.970   1.164
      -  d           0.000   1.164
  
    # Using partial waves for I as LCAO basis

Reference energy: -418222.442431  # eV

eigensolver:
  name: 'Davidson'
  niter: 2
  converge_bands: 'occupied'
Density mixing:
  Method: sum
  Backend: pulay
  Linear mixing parameter: 0.05
  old densities: 5
  Damping of long wavelength oscillations: 100
occupation numbers:
  Fermi-Dirac:
    width: 0.1000  # eV
  

poisson solver:
  ecut: 6400.0  # eV

xc functional:
  name: None

convergence criteria:
- Maximum [total energy] change in last 3 cyles: 0.0005 eV / valence electron
- Maximum integral of absolute [dens]ity change: 0.0001 electrons / valence electron
- Maximum integral of absolute [eigenst]ate change: 4e-08 eV^2 / valence electron
maximum number of iterations: 333

#      iter     time        total  log10-change:
#                          energy   eigst   dens
# iter:   1 01:27:39   -15.057423                  +4.6,+0.0,+0.0
# iter:   2 01:28:08   -15.186758   -0.41  -1.49   +4.4,-0.0,+0.0
# iter:   3 01:28:38   -15.138015   -0.96  -1.52   +4.4,-0.0,+0.0
# iter:   4 01:29:07   -15.151244   -1.21  -1.57   +4.5,+0.0,+0.0
# iter:   5 01:29:37   -15.212855   -1.52  -1.77   +4.6,+0.0,+0.0
# iter:   6 01:30:06   -15.209561   -1.88  -2.22   +4.7,+0.0,+0.0
# iter:   7 01:30:35   -15.206002c  -2.13  -2.21   +4.7,+0.0,+0.0
# iter:   8 01:31:04   -15.141367   -2.03  -2.18   +4.7,+0.0,-0.0
# iter:   9 01:31:34   -15.139618   -2.35  -2.63   +4.6,+0.0,-0.0
# iter:  10 01:32:03   -15.139328c  -2.84  -3.01   +4.6,+0.0,-0.0
# iter:  11 01:32:33   -15.148284c  -2.73  -3.03   +4.6,+0.0,-0.0
# iter:  12 01:33:02   -15.141079c  -3.11  -2.69   +4.6,+0.0,-0.0
# iter:  13 01:33:31   -15.139602c  -3.30  -2.98   +4.6,+0.0,-0.0
# iter:  14 01:34:01   -15.139591c  -3.64  -3.38   +4.6,+0.0,-0.0
# iter:  15 01:34:30   -15.139592c  -3.85  -3.50   +4.6,+0.0,-0.0
# iter:  16 01:34:59   -15.139615c  -4.05  -3.55   +4.6,+0.0,-0.0
# iter:  17 01:35:28   -15.139723c  -4.17  -3.56   +4.6,+0.0,-0.0
# iter:  18 01:35:58   -15.139614c  -4.27  -3.57   +4.6,+0.0,-0.0
# iter:  19 01:36:27   -15.139615c  -4.49  -3.92   +4.6,+0.0,-0.0
# iter:  20 01:36:56   -15.139616c  -4.66  -3.95   +4.6,+0.0,-0.0
# iter:  21 01:37:25   -15.139614c  -4.80  -4.02c  +4.6,+0.0,-0.0
# iter:  22 01:37:54   -15.139616c  -4.94  -4.39c  +4.6,+0.0,-0.0
# iter:  23 01:38:23   -15.139616c  -5.08  -4.62c  +4.6,+0.0,-0.0
# iter:  24 01:38:53   -15.139616c  -5.21  -4.66c  +4.6,+0.0,-0.0
# iter:  25 01:39:22   -15.139617c  -5.35  -4.58c  +4.6,+0.0,-0.0
# iter:  26 01:39:51   -15.139617c  -5.48  -4.59c  +4.6,+0.0,-0.0
# iter:  27 01:40:20   -15.139617c  -5.61  -4.68c  +4.6,+0.0,-0.0
# iter:  28 01:40:50   -15.139618c  -5.74  -4.70c  +4.6,+0.0,-0.0
# iter:  29 01:41:19   -15.139617c  -5.87  -4.80c  +4.6,+0.0,-0.0
# iter:  30 01:41:48   -15.139618c  -5.99  -4.85c  +4.6,+0.0,-0.0
# iter:  31 01:42:17   -15.139618c  -6.12  -4.88c  +4.6,+0.0,-0.0
# iter:  32 01:42:46   -15.139618c  -6.25  -5.06c  +4.6,+0.0,-0.0
# iter:  33 01:43:15   -15.139618c  -6.38  -5.11c  +4.6,+0.0,-0.0
# iter:  34 01:43:44   -15.139618c  -6.51  -5.34c  +4.6,+0.0,-0.0
# iter:  35 01:44:14   -15.139618c  -6.63  -5.52c  +4.6,+0.0,-0.0
# iter:  36 01:44:43   -15.139618c  -6.75  -5.60c  +4.6,+0.0,-0.0
# iter:  37 01:45:12   -15.139618c  -6.87  -5.84c  +4.6,+0.0,-0.0
# iter:  38 01:45:41   -15.139618c  -7.00  -5.85c  +4.6,+0.0,-0.0
# iter:  39 01:46:10   -15.139618c  -7.12  -5.92c  +4.6,+0.0,-0.0
# iter:  40 01:46:39   -15.139618c  -7.23  -5.95c  +4.6,+0.0,-0.0
# iter:  41 01:47:09   -15.139618c  -7.35  -5.96c  +4.6,+0.0,-0.0
# iter:  42 01:47:38   -15.139618c  -7.48c -5.94c  +4.6,+0.0,-0.0
scf_steps: 42
energies:  # eV
  coulomb:         -12.550150
  zero:              0.094113
  xc:              -17.160189
  external:          0.000000
  kinetic:          14.477146
  spinorbit:         0.000000
  entropy:          -0.001075
  total:           -15.140155
  extrapolated:    -15.139618

dipole moment: [-5.306972, -9.191944, -11.733604]  # |e|*Ang

total magnetic moment: [4.633377, 0.011730, -0.000000]

local magnetic moments: [
  [ 4.331838, -0.000572,  0.000000],  # Mn 0
  [ 0.014362, -0.038981, -0.000000],  # I  1
  [ 0.014361, -0.038981,  0.000000]]  # I  2


Fermi level: -1.237 eV

kpt = [-0.429, -0.429, 0.000], weight = 0.005:
  Band      eig [eV]   occ [0-1]
     0       -82.179       1.000
   ...
    21        -3.988       1.000
    22        -3.916       1.000
    23        -3.896       1.000
    24        -3.664       1.000
    25        -3.552       1.000
    26        -3.535       1.000
    27        -2.188       1.000
    28        -2.063       1.000
    29        -0.482       0.001
    30        -0.205       0.000
    31        -0.137       0.000
    32         0.507       0.000
    33         0.542       0.000
    34         1.360       0.000
    35         2.363       0.000
    36         3.006       0.000
   ...
    41         5.704       0.000

kpt = [-0.429, -0.357, 0.000], weight = 0.005:
  Band      eig [eV]   occ [0-1]
     0       -82.179       1.000
   ...
    21        -3.943       1.000
    22        -3.896       1.000
    23        -3.785       1.000
    24        -3.757       1.000
    25        -3.530       1.000
    26        -3.453       1.000
    27        -2.270       1.000
    28        -1.995       0.999
    29        -0.461       0.000
    30        -0.228       0.000
    31        -0.141       0.000
    32         0.487       0.000
    33         0.559       0.000
    34         1.351       0.000
    35         2.322       0.000
    36         2.932       0.000
   ...
    41         5.291       0.000

kpt = [-0.429, -0.286, 0.000], weight = 0.005:
  Band      eig [eV]   occ [0-1]
     0       -82.179       1.000
   ...
    21        -4.052       1.000
    22        -3.874       1.000
    23        -3.796       1.000
    24        -3.722       1.000
    25        -3.478       1.000
    26        -3.405       1.000
    27        -2.274       1.000
    28        -2.030       1.000
    29        -0.379       0.000
    30        -0.272       0.000
    31        -0.148       0.000
    32         0.436       0.000
    33         0.559       0.000
    34         1.513       0.000
    35         2.261       0.000
    36         3.267       0.000
   ...
    41         4.962       0.000
(only showing first 3 out of 196 k-points)

Gap: 1.241 eV
Transition (v -> c):
  (s=0, k=90, n=28, [0.00, 0.00, 0.00]) -> (s=0, k=188, n=29, [0.50, 0.00, 0.00])
# Writing to Band_Conv/gsq-75.gpw (mode='')

---

timing:  # [seconds]
  Total: 1245.644  # ━━━━━━━━━━━━━━━━━━━━━━━━━━━━━━━━━━━━━━━━━━━━━━━━━━━━━━━━
  Init:    19.078  # ━
  SCF:   1226.117  # ━━━━━━━━━━━━━━━━━━━━━━━━━━━━━━━━━━━━━━━━━━━━━━━━━━━━━━━

Max RSS: 2436.301  # MiB
