#  __  _  _
# | _ |_)|_||  |
# |__||  | ||/\| - 24.1.0

User:   s194113@n-62-29-34
Date:   Tue May  7 05:22:58 2024
Arch:   x86_64
Pid:    15878
CWD:    /work3/s194113/10302/10302_NM/MnI2
Python: 3.8.5
gpaw:   /zhome/87/8/147075/venv-name/gpaw/gpaw (10808453a8)
_gpaw:  /zhome/87/8/147075/venv-name/gpaw/
        _gpaw.cpython-38-x86_64-linux-gnu.so (10808453a8)
ase:    /zhome/87/8/147075/venv-name/ase/ase (version 3.23.0b1-c36115a2db)
numpy:  /zhome/87/8/147075/venv-name/lib/python3.8/site-packages/numpy (version 1.24.4)
scipy:  /zhome/87/8/147075/venv-name/lib/python3.8/site-packages/scipy (version 1.10.1)
libxc:  4.3.4
units:  Angstrom and eV
cores: 18
OpenMP: False
OMP_NUM_THREADS: 1

---
input parameters:
  kpts: 
    density: 8.0
    gamma: True
  magmoms: [[4.4079912, 0, 0], [0.08032672, 0, 0], [0.08032672, 0, 0]]
  mixer: 
    backend: 'pulay'
    beta: 0.05
    method: 'sum'
    nmaxold: 5
    weight: 100
  mode: 
    name: 'pw'
    ecut: 800.0
    qspiral: array([0.10077519, 0.10077519, 0.        ])
  parallel: 
    kpt: None
    domain: 1
    band: 1
    order: 'kdb'
    stridebands: False
    augment_grids: False
    sl_auto: False
    sl_default: None
    sl_diagonalize: None
    sl_inverse_cholesky: None
    sl_lcao: None
    sl_lrtddft: None
    use_elpa: False
    elpasolver: '2stage'
    buffer_size: None
    gpu: False
  symmetry: 
    point_group: False
    time_reversal: False
  xc: 
    name: 'LDA'

#                        
#                        
#                        
#                        
#              I         
#                        
#                        
#        Mn              
#          I             
#                        
#                        
#                        
#                        
#                        

atoms: [  # symbols, positions [Ang] and initial magnetic moments
  [ Mn, [   0.000000,    0.000000,    7.649535], [ 4.408,  0.000,  0.000]], # 0
  [  I, [   2.082858,    1.202539,    9.299069], [ 0.080,  0.000,  0.000]], # 1
  [  I, [   0.000000,    2.405077,    6.000000], [ 0.080,  0.000,  0.000]]] # 2

cell: [  # Ang
#     x            y            z
  [   4.165716,    0.000000,    0.000000],
  [  -2.082858,    3.607616,    0.000000],
  [   0.000000,    0.000000,   15.299069]]

periodic: [True      , True      , False     ]
lengths:  [  4.165716,   4.165716,  15.299069]  # Ang
angles:   [ 90.000000,  90.000000, 120.000000]

symmetry:
  number of symmetries: 1
  rotations: [
    [[ 1,  0,  0], [ 0,  1,  0], [ 0,  0,  1]]]

bz sampling:
  number of bz points: 196
  number of ibz points: 196
  monkhorst-pack size: [14, 14, 1]
  monkhorst-pack shift: [0.03571428571428571, 0.03571428571428571, 0.0]
  points and weights: [
    [[ -0.42857143,  -0.42857143,   0.00000000], 0.00510204],  # 0
    [[ -0.42857143,  -0.35714286,   0.00000000], 0.00510204],  # 1
    [[ -0.42857143,  -0.28571429,   0.00000000], 0.00510204],  # 2
    [[ -0.42857143,  -0.21428571,   0.00000000], 0.00510204],  # 3
    [[ -0.42857143,  -0.14285714,   0.00000000], 0.00510204],  # 4
    [[ -0.42857143,  -0.07142857,   0.00000000], 0.00510204],  # 5
    [[ -0.42857143,   0.00000000,   0.00000000], 0.00510204],  # 6
    [[ -0.42857143,   0.07142857,   0.00000000], 0.00510204],  # 7
    [[ -0.42857143,   0.14285714,   0.00000000], 0.00510204],  # 8
    [[ -0.42857143,   0.21428571,   0.00000000], 0.00510204],  # 9
    # ...
    [[  0.50000000,   0.50000000,   0.00000000], 0.00510204]]  # 195

plane wave coefficients: 11927
cutoff: 800.0 eV

spin-components: 4  # (non-collinear spins)
bands: 42
valence electrons: 29.0
spin-degeneracy: 1
dtype: complex128

memory:
    wave functions: 3_105_768_960  # bytes  (172_542_720 per core)

parallelization:
    kpt:    18
    domain: 1
    band:   1

density:
  components: 4
  grid points: [ 28  28 100]
  charge: 0.0  # |e|

potential:
  grid points: [ 28  28 100]

species:
  Mn:
    name: Manganese
    id: 0d715a8018be061a6e9ea6f2d364ac92
    Z: 25.0
    valence: 15
    core: 10
    charge: 0.0
    file: /zhome/86/d/1666/PAW/gpaw-setups-0.9.20000/Mn.LDA.gz
    compensation charges: {type: gauss,
                           rc: 0.38,
                           lmax: 2}
    cutoffs: {filter: 2.14,
              core: 0.86}
    valence states:
      #              energy  rcut
      - 3s(2.00)   -85.387   1.275
      - 4s(2.00)    -5.282   1.275
      - 3p(6.00)   -54.493   1.281
      - 4p(0.00)    -1.471   1.281
      - 3d(5.00)    -7.009   1.138
      -  d          20.203   1.138
  
    # Using partial waves for Mn as LCAO basis

  I:
    name: Iodine
    id: b559721c0c096a7b4c8fc0e0f4de5cf4
    Z: 53.0
    valence: 7
    core: 46
    charge: 0.0
    file: /zhome/86/d/1666/PAW/gpaw-setups-0.9.20000/I.LDA.gz
    compensation charges: {type: gauss,
                           rc: 0.37,
                           lmax: 2}
    cutoffs: {filter: 2.06,
              core: 2.90}
    valence states:
      #              energy  rcut
      - 5s(2.00)   -17.626   1.164
      - 5p(5.00)    -7.241   1.164
      -  s           9.585   1.164
      -  p          19.970   1.164
      -  d           0.000   1.164
  
    # Using partial waves for I as LCAO basis

Reference energy: -418222.442431  # eV

eigensolver:
  name: 'Davidson'
  niter: 2
  converge_bands: 'occupied'
Density mixing:
  Method: sum
  Backend: pulay
  Linear mixing parameter: 0.05
  old densities: 5
  Damping of long wavelength oscillations: 100
occupation numbers:
  Fermi-Dirac:
    width: 0.1000  # eV
  

poisson solver:
  ecut: 6400.0  # eV

xc functional:
  name: None

convergence criteria:
- Maximum [total energy] change in last 3 cyles: 0.0005 eV / valence electron
- Maximum integral of absolute [dens]ity change: 0.0001 electrons / valence electron
- Maximum integral of absolute [eigenst]ate change: 4e-08 eV^2 / valence electron
maximum number of iterations: 333

#      iter     time        total  log10-change:
#                          energy   eigst   dens
# iter:   1 05:23:44   -15.180905                  +4.6,+0.0,+0.0
# iter:   2 05:24:14   -15.190307   -0.66  -1.49   +4.6,-0.0,-0.0
# iter:   3 05:24:44   -15.121701   -1.13  -1.52   +4.7,+0.0,+0.0
# iter:   4 05:25:13   -15.130553   -1.40  -1.58   +4.7,+0.0,+0.0
# iter:   5 05:25:43   -15.176569   -1.68  -1.79   +4.9,+0.0,+0.0
# iter:   6 05:26:13   -15.136503   -1.93  -2.27   +4.9,+0.0,+0.0
# iter:   7 05:26:42   -15.139275   -2.05  -2.28   +4.9,+0.0,-0.0
# iter:   8 05:27:12   -15.136420c  -2.61  -2.58   +4.8,+0.0,-0.0
# iter:   9 05:27:41   -15.134943c  -2.83  -2.67   +4.8,+0.0,-0.0
# iter:  10 05:28:11   -15.160611   -2.67  -2.70   +4.8,+0.0,-0.0
# iter:  11 05:28:40   -15.166167   -3.19  -2.37   +4.8,+0.0,+0.0
# iter:  12 05:29:09   -15.137261   -2.87  -2.32   +4.8,+0.0,+0.0
# iter:  13 05:29:39   -15.132092   -3.22  -2.61   +4.8,+0.0,+0.0
# iter:  14 05:30:08   -15.134684c  -2.81  -2.86   +4.8,+0.0,+0.0
# iter:  15 05:30:38   -15.130676c  -3.37  -2.75   +4.9,+0.0,+0.0
# iter:  16 05:31:07   -15.131865c  -3.63  -3.20   +4.9,+0.0,+0.0
# iter:  17 05:31:36   -15.135089c  -3.63  -3.04   +4.9,+0.0,+0.0
# iter:  18 05:32:05   -15.130658c  -3.34  -2.79   +4.9,+0.0,+0.0
# iter:  19 05:32:35   -15.130815c  -4.29  -3.83   +4.9,+0.0,+0.0
# iter:  20 05:33:04   -15.130863c  -4.68  -3.93   +4.9,+0.0,+0.0
# iter:  21 05:33:33   -15.130830c  -4.96  -3.77   +4.9,+0.0,+0.0
# iter:  22 05:34:02   -15.130858c  -5.11  -3.89   +4.9,+0.0,+0.0
# iter:  23 05:34:31   -15.130820c  -4.82  -3.76   +4.9,+0.0,+0.0
# iter:  24 05:35:00   -15.130823c  -5.19  -3.99   +4.9,+0.0,+0.0
# iter:  25 05:35:29   -15.130816c  -5.64  -4.31c  +4.9,+0.0,+0.0
# iter:  26 05:35:58   -15.130816c  -5.79  -4.44c  +4.9,+0.0,+0.0
# iter:  27 05:36:27   -15.130816c  -5.93  -4.61c  +4.9,+0.0,+0.0
# iter:  28 05:36:56   -15.130815c  -6.07  -4.94c  +4.9,+0.0,+0.0
# iter:  29 05:37:25   -15.130816c  -6.21  -4.96c  +4.9,+0.0,+0.0
# iter:  30 05:37:54   -15.130817c  -6.33  -5.00c  +4.9,+0.0,+0.0
# iter:  31 05:38:24   -15.130816c  -6.47  -4.94c  +4.9,+0.0,+0.0
# iter:  32 05:38:53   -15.130816c  -6.61  -5.61c  +4.9,+0.0,+0.0
# iter:  33 05:39:22   -15.130817c  -6.74  -5.67c  +4.9,+0.0,+0.0
# iter:  34 05:39:51   -15.130817c  -6.88  -5.69c  +4.9,+0.0,+0.0
# iter:  35 05:40:21   -15.130817c  -7.01  -5.72c  +4.9,+0.0,+0.0
# iter:  36 05:40:50   -15.130816c  -7.15  -5.80c  +4.9,+0.0,+0.0
# iter:  37 05:41:19   -15.130816c  -7.28  -5.85c  +4.9,+0.0,-0.0
# iter:  38 05:41:48   -15.130816c  -7.41c -5.87c  +4.9,+0.0,-0.0
scf_steps: 38
energies:  # eV
  coulomb:         -12.816255
  zero:              0.093364
  xc:              -17.211137
  external:          0.000000
  kinetic:          14.804005
  spinorbit:         0.000000
  entropy:          -0.001588
  total:           -15.131610
  extrapolated:    -15.130816

dipole moment: [-5.649342, -9.784947, -13.591399]  # |e|*Ang

total magnetic moment: [4.870637, 0.012812, -0.000000]

local magnetic moments: [
  [ 4.348902, -0.000321, -0.000000],  # Mn 0
  [ 0.056820, -0.041712,  0.000000],  # I  1
  [ 0.056819, -0.041713,  0.000000]]  # I  2


Fermi level: -1.259 eV

kpt = [-0.429, -0.429, 0.000], weight = 0.005:
  Band      eig [eV]   occ [0-1]
     0       -82.203       1.000
   ...
    21        -3.949       1.000
    22        -3.909       1.000
    23        -3.863       1.000
    24        -3.733       1.000
    25        -3.631       1.000
    26        -3.580       1.000
    27        -2.113       1.000
    28        -2.098       1.000
    29        -0.555       0.001
    30        -0.178       0.000
    31        -0.149       0.000
    32         0.487       0.000
    33         0.611       0.000
    34         1.291       0.000
    35         2.321       0.000
    36         2.967       0.000
   ...
    41         5.334       0.000

kpt = [-0.429, -0.357, 0.000], weight = 0.005:
  Band      eig [eV]   occ [0-1]
     0       -82.203       1.000
   ...
    21        -4.072       1.000
    22        -3.971       1.000
    23        -3.852       1.000
    24        -3.708       1.000
    25        -3.574       1.000
    26        -3.542       1.000
    27        -2.222       1.000
    28        -2.134       1.000
    29        -0.431       0.000
    30        -0.199       0.000
    31        -0.147       0.000
    32         0.437       0.000
    33         0.558       0.000
    34         1.501       0.000
    35         2.416       0.000
    36         3.371       0.000
   ...
    41         4.801       0.000

kpt = [-0.429, -0.286, 0.000], weight = 0.005:
  Band      eig [eV]   occ [0-1]
     0       -82.203       1.000
   ...
    21        -4.167       1.000
    22        -4.000       1.000
    23        -3.802       1.000
    24        -3.739       1.000
    25        -3.537       1.000
    26        -3.516       1.000
    27        -2.310       1.000
    28        -2.141       1.000
    29        -0.336       0.000
    30        -0.229       0.000
    31        -0.152       0.000
    32         0.392       0.000
    33         0.542       0.000
    34         1.695       0.000
    35         2.481       0.000
    36         3.743       0.000
   ...
    41         5.130       0.000
(only showing first 3 out of 196 k-points)

Gap: 0.982 eV
Transition (v -> c):
  (s=0, k=90, n=28, [0.00, 0.00, 0.00]) -> (s=0, k=188, n=29, [0.50, 0.00, 0.00])
# Writing to Band_Conv/gsq-87.gpw (mode='')

---

timing:  # [seconds]
  Total: 1131.096  # ━━━━━━━━━━━━━━━━━━━━━━━━━━━━━━━━━━━━━━━━━━━━━━━━━━━━━━━━
  Init:    18.978  # ━
  SCF:   1111.546  # ━━━━━━━━━━━━━━━━━━━━━━━━━━━━━━━━━━━━━━━━━━━━━━━━━━━━━━━

Max RSS: 2459.449  # MiB
