#  __  _  _
# | _ |_)|_||  |
# |__||  | ||/\| - 24.1.0

User:   s194113@n-62-29-34
Date:   Mon May  6 17:40:43 2024
Arch:   x86_64
Pid:    15878
CWD:    /work3/s194113/10302/10302_NM/MnI2
Python: 3.8.5
gpaw:   /zhome/87/8/147075/venv-name/gpaw/gpaw (10808453a8)
_gpaw:  /zhome/87/8/147075/venv-name/gpaw/
        _gpaw.cpython-38-x86_64-linux-gnu.so (10808453a8)
ase:    /zhome/87/8/147075/venv-name/ase/ase (version 3.23.0b1-c36115a2db)
numpy:  /zhome/87/8/147075/venv-name/lib/python3.8/site-packages/numpy (version 1.24.4)
scipy:  /zhome/87/8/147075/venv-name/lib/python3.8/site-packages/scipy (version 1.10.1)
libxc:  4.3.4
units:  Angstrom and eV
cores: 18
OpenMP: False
OMP_NUM_THREADS: 1

---
input parameters:
  kpts: 
    density: 8.0
    gamma: True
  magmoms: [[4.4079912, 0, 0], [0.08032672, 0, 0], [0.08032672, 0, 0]]
  mixer: 
    backend: 'pulay'
    beta: 0.05
    method: 'sum'
    nmaxold: 5
    weight: 100
  mode: 
    name: 'pw'
    ecut: 800.0
    qspiral: array([0.36507937, 0.26984127, 0.        ])
  parallel: 
    kpt: None
    domain: 1
    band: 1
    order: 'kdb'
    stridebands: False
    augment_grids: False
    sl_auto: False
    sl_default: None
    sl_diagonalize: None
    sl_inverse_cholesky: None
    sl_lcao: None
    sl_lrtddft: None
    use_elpa: False
    elpasolver: '2stage'
    buffer_size: None
    gpu: False
  symmetry: 
    point_group: False
    time_reversal: False
  xc: 
    name: 'LDA'

#                        
#                        
#                        
#                        
#              I         
#                        
#                        
#        Mn              
#          I             
#                        
#                        
#                        
#                        
#                        

atoms: [  # symbols, positions [Ang] and initial magnetic moments
  [ Mn, [   0.000000,    0.000000,    7.649535], [ 4.408,  0.000,  0.000]], # 0
  [  I, [   2.082858,    1.202539,    9.299069], [ 0.080,  0.000,  0.000]], # 1
  [  I, [   0.000000,    2.405077,    6.000000], [ 0.080,  0.000,  0.000]]] # 2

cell: [  # Ang
#     x            y            z
  [   4.165716,    0.000000,    0.000000],
  [  -2.082858,    3.607616,    0.000000],
  [   0.000000,    0.000000,   15.299069]]

periodic: [True      , True      , False     ]
lengths:  [  4.165716,   4.165716,  15.299069]  # Ang
angles:   [ 90.000000,  90.000000, 120.000000]

symmetry:
  number of symmetries: 1
  rotations: [
    [[ 1,  0,  0], [ 0,  1,  0], [ 0,  0,  1]]]

bz sampling:
  number of bz points: 196
  number of ibz points: 196
  monkhorst-pack size: [14, 14, 1]
  monkhorst-pack shift: [0.03571428571428571, 0.03571428571428571, 0.0]
  points and weights: [
    [[ -0.42857143,  -0.42857143,   0.00000000], 0.00510204],  # 0
    [[ -0.42857143,  -0.35714286,   0.00000000], 0.00510204],  # 1
    [[ -0.42857143,  -0.28571429,   0.00000000], 0.00510204],  # 2
    [[ -0.42857143,  -0.21428571,   0.00000000], 0.00510204],  # 3
    [[ -0.42857143,  -0.14285714,   0.00000000], 0.00510204],  # 4
    [[ -0.42857143,  -0.07142857,   0.00000000], 0.00510204],  # 5
    [[ -0.42857143,   0.00000000,   0.00000000], 0.00510204],  # 6
    [[ -0.42857143,   0.07142857,   0.00000000], 0.00510204],  # 7
    [[ -0.42857143,   0.14285714,   0.00000000], 0.00510204],  # 8
    [[ -0.42857143,   0.21428571,   0.00000000], 0.00510204],  # 9
    # ...
    [[  0.50000000,   0.50000000,   0.00000000], 0.00510204]]  # 195

plane wave coefficients: 11927
cutoff: 800.0 eV

spin-components: 4  # (non-collinear spins)
bands: 42
valence electrons: 29.0
spin-degeneracy: 1
dtype: complex128

memory:
    wave functions: 3_105_768_960  # bytes  (172_542_720 per core)

parallelization:
    kpt:    18
    domain: 1
    band:   1

density:
  components: 4
  grid points: [ 28  28 100]
  charge: 0.0  # |e|

potential:
  grid points: [ 28  28 100]

species:
  Mn:
    name: Manganese
    id: 0d715a8018be061a6e9ea6f2d364ac92
    Z: 25.0
    valence: 15
    core: 10
    charge: 0.0
    file: /zhome/86/d/1666/PAW/gpaw-setups-0.9.20000/Mn.LDA.gz
    compensation charges: {type: gauss,
                           rc: 0.38,
                           lmax: 2}
    cutoffs: {filter: 2.14,
              core: 0.86}
    valence states:
      #              energy  rcut
      - 3s(2.00)   -85.387   1.275
      - 4s(2.00)    -5.282   1.275
      - 3p(6.00)   -54.493   1.281
      - 4p(0.00)    -1.471   1.281
      - 3d(5.00)    -7.009   1.138
      -  d          20.203   1.138
  
    # Using partial waves for Mn as LCAO basis

  I:
    name: Iodine
    id: b559721c0c096a7b4c8fc0e0f4de5cf4
    Z: 53.0
    valence: 7
    core: 46
    charge: 0.0
    file: /zhome/86/d/1666/PAW/gpaw-setups-0.9.20000/I.LDA.gz
    compensation charges: {type: gauss,
                           rc: 0.37,
                           lmax: 2}
    cutoffs: {filter: 2.06,
              core: 2.90}
    valence states:
      #              energy  rcut
      - 5s(2.00)   -17.626   1.164
      - 5p(5.00)    -7.241   1.164
      -  s           9.585   1.164
      -  p          19.970   1.164
      -  d           0.000   1.164
  
    # Using partial waves for I as LCAO basis

Reference energy: -418222.442431  # eV

eigensolver:
  name: 'Davidson'
  niter: 2
  converge_bands: 'occupied'
Density mixing:
  Method: sum
  Backend: pulay
  Linear mixing parameter: 0.05
  old densities: 5
  Damping of long wavelength oscillations: 100
occupation numbers:
  Fermi-Dirac:
    width: 0.1000  # eV
  

poisson solver:
  ecut: 6400.0  # eV

xc functional:
  name: None

convergence criteria:
- Maximum [total energy] change in last 3 cyles: 0.0005 eV / valence electron
- Maximum integral of absolute [dens]ity change: 0.0001 electrons / valence electron
- Maximum integral of absolute [eigenst]ate change: 4e-08 eV^2 / valence electron
maximum number of iterations: 333

#      iter     time        total  log10-change:
#                          energy   eigst   dens
# iter:   1 17:41:30   -14.666501                  +4.6,+0.0,+0.0
# iter:   2 17:42:00   -15.141615   -0.08  -1.49   +4.1,-0.0,-0.0
# iter:   3 17:42:30   -15.138463   -0.70  -1.52   +4.0,-0.0,-0.0
# iter:   4 17:43:00   -15.158044   -1.01  -1.56   +4.1,-0.0,-0.0
# iter:   5 17:43:30   -15.254704   -1.31  -1.75   +4.3,-0.0,-0.0
# iter:   6 17:43:59   -15.158617   -1.58  -2.14   +4.4,+0.0,-0.0
# iter:   7 17:44:30   -15.151097   -1.66  -2.30   +4.4,+0.0,-0.0
# iter:   8 17:44:59   -15.141881   -2.11  -2.21   +4.3,+0.0,-0.0
# iter:   9 17:45:29   -15.142799c  -2.38  -2.95   +4.3,+0.0,-0.0
# iter:  10 17:45:59   -15.142732c  -2.58  -3.04   +4.3,+0.0,-0.0
# iter:  11 17:46:29   -15.142241c  -2.76  -3.01   +4.3,+0.0,-0.0
# iter:  12 17:46:59   -15.142315c  -2.96  -3.31   +4.3,+0.0,-0.0
# iter:  13 17:47:29   -15.142370c  -3.15  -3.48   +4.3,+0.0,-0.0
# iter:  14 17:47:59   -15.142456c  -3.33  -3.53   +4.3,+0.0,-0.0
# iter:  15 17:48:28   -15.142467c  -3.52  -3.53   +4.3,+0.0,-0.0
# iter:  16 17:48:58   -15.142444c  -3.69  -3.54   +4.3,+0.0,-0.0
# iter:  17 17:49:28   -15.142452c  -3.86  -3.58   +4.3,+0.0,-0.0
# iter:  18 17:49:58   -15.142441c  -4.03  -3.66   +4.3,+0.0,-0.0
# iter:  19 17:50:28   -15.142427c  -4.18  -3.73   +4.3,+0.0,-0.0
# iter:  20 17:50:58   -15.142433c  -4.34  -4.04c  +4.3,+0.0,+0.0
# iter:  21 17:51:27   -15.142437c  -4.49  -4.15c  +4.3,+0.0,+0.0
# iter:  22 17:51:57   -15.142432c  -4.64  -4.24c  +4.3,+0.0,+0.0
# iter:  23 17:52:27   -15.142442c  -4.78  -4.46c  +4.3,+0.0,+0.0
# iter:  24 17:52:57   -15.142434c  -4.93  -4.22c  +4.3,+0.0,+0.0
# iter:  25 17:53:27   -15.142434c  -5.09  -4.45c  +4.3,+0.0,+0.0
# iter:  26 17:53:56   -15.142433c  -5.22  -4.38c  +4.3,+0.0,+0.0
# iter:  27 17:54:26   -15.142435c  -5.35  -4.43c  +4.3,+0.0,+0.0
# iter:  28 17:54:56   -15.142432c  -5.48  -4.43c  +4.3,+0.0,+0.0
# iter:  29 17:55:26   -15.142434c  -5.61  -4.46c  +4.3,+0.0,+0.0
# iter:  30 17:55:56   -15.142434c  -5.75  -4.62c  +4.3,+0.0,+0.0
# iter:  31 17:56:25   -15.142434c  -5.88  -4.73c  +4.3,+0.0,+0.0
# iter:  32 17:56:55   -15.142433c  -6.00  -4.78c  +4.3,+0.0,+0.0
# iter:  33 17:57:25   -15.142433c  -6.13  -4.95c  +4.3,+0.0,+0.0
# iter:  34 17:57:55   -15.142434c  -6.25  -5.05c  +4.3,+0.0,+0.0
# iter:  35 17:58:24   -15.142434c  -6.38  -5.22c  +4.3,+0.0,+0.0
# iter:  36 17:58:54   -15.142433c  -6.50  -5.24c  +4.3,+0.0,+0.0
# iter:  37 17:59:24   -15.142433c  -6.62  -5.44c  +4.3,+0.0,+0.0
# iter:  38 17:59:53   -15.142434c  -6.73  -5.61c  +4.3,+0.0,+0.0
# iter:  39 18:00:23   -15.142434c  -6.85  -5.80c  +4.3,+0.0,+0.0
# iter:  40 18:00:53   -15.142433c  -6.96  -5.85c  +4.3,+0.0,+0.0
# iter:  41 18:01:22   -15.142433c  -7.08  -5.84c  +4.3,+0.0,+0.0
# iter:  42 18:01:52   -15.142433c  -7.19  -6.14c  +4.3,+0.0,+0.0
# iter:  43 18:02:21   -15.142433c  -7.30  -6.15c  +4.3,+0.0,+0.0
# iter:  44 18:02:51   -15.142433c  -7.42c -6.07c  +4.3,+0.0,+0.0
scf_steps: 44
energies:  # eV
  coulomb:         -12.452362
  zero:              0.094423
  xc:              -17.138375
  external:          0.000000
  kinetic:          14.354349
  spinorbit:         0.000000
  entropy:          -0.000937
  total:           -15.142902
  extrapolated:    -15.142433

dipole moment: [-4.779545, -8.462774, -9.265883]  # |e|*Ang

total magnetic moment: [4.320469, 0.000876, 0.000000]

local magnetic moments: [
  [ 4.322715, -0.000015,  0.000000],  # Mn 0
  [-0.007441, -0.000000, -0.000000],  # I  1
  [ 0.004924, -0.005579, -0.000000]]  # I  2


Fermi level: -1.215 eV

kpt = [-0.429, -0.429, 0.000], weight = 0.005:
  Band      eig [eV]   occ [0-1]
     0       -82.168       1.000
   ...
    21        -4.140       1.000
    22        -4.067       1.000
    23        -3.750       1.000
    24        -3.681       1.000
    25        -3.540       1.000
    26        -3.476       1.000
    27        -2.260       1.000
    28        -2.133       1.000
    29        -0.300       0.000
    30        -0.248       0.000
    31        -0.151       0.000
    32         0.433       0.000
    33         0.496       0.000
    34         1.717       0.000
    35         2.467       0.000
    36         3.701       0.000
   ...
    41         4.828       0.000

kpt = [-0.429, -0.357, 0.000], weight = 0.005:
  Band      eig [eV]   occ [0-1]
     0       -82.168       1.000
   ...
    21        -3.999       1.000
    22        -3.915       1.000
    23        -3.744       1.000
    24        -3.657       1.000
    25        -3.499       1.000
    26        -3.357       1.000
    27        -2.295       1.000
    28        -2.022       1.000
    29        -0.369       0.000
    30        -0.245       0.000
    31        -0.169       0.000
    32         0.417       0.000
    33         0.538       0.000
    34         1.586       0.000
    35         2.435       0.000
    36         3.317       0.000
   ...
    41         4.868       0.000

kpt = [-0.429, -0.286, 0.000], weight = 0.005:
  Band      eig [eV]   occ [0-1]
     0       -82.168       1.000
   ...
    21        -3.937       1.000
    22        -3.718       1.000
    23        -3.669       1.000
    24        -3.555       1.000
    25        -3.449       1.000
    26        -3.255       1.000
    27        -2.269       1.000
    28        -1.948       0.999
    29        -0.457       0.001
    30        -0.243       0.000
    31        -0.176       0.000
    32         0.413       0.000
    33         0.545       0.000
    34         1.497       0.000
    35         2.379       0.000
    36         3.042       0.000
   ...
    41         4.700       0.000
(only showing first 3 out of 196 k-points)

Gap: 1.383 eV
Transition (v -> c):
  (s=0, k=47, n=28, [-0.21, -0.07, 0.00]) -> (s=0, k=22, n=29, [-0.36, 0.14, 0.00])
# Writing to Band_Conv/gsq-53.gpw (mode='')

---

timing:  # [seconds]
  Total: 1328.104  # ━━━━━━━━━━━━━━━━━━━━━━━━━━━━━━━━━━━━━━━━━━━━━━━━━━━━━━━━
  Init:    19.013  # ━
  SCF:   1308.643  # ━━━━━━━━━━━━━━━━━━━━━━━━━━━━━━━━━━━━━━━━━━━━━━━━━━━━━━━

Max RSS: 2214.543  # MiB
