#  __  _  _
# | _ |_)|_||  |
# |__||  | ||/\| - 24.1.0

User:   s194113@n-62-29-34
Date:   Tue May  7 04:45:11 2024
Arch:   x86_64
Pid:    15878
CWD:    /work3/s194113/10302/10302_NM/MnI2
Python: 3.8.5
gpaw:   /zhome/87/8/147075/venv-name/gpaw/gpaw (10808453a8)
_gpaw:  /zhome/87/8/147075/venv-name/gpaw/
        _gpaw.cpython-38-x86_64-linux-gnu.so (10808453a8)
ase:    /zhome/87/8/147075/venv-name/ase/ase (version 3.23.0b1-c36115a2db)
numpy:  /zhome/87/8/147075/venv-name/lib/python3.8/site-packages/numpy (version 1.24.4)
scipy:  /zhome/87/8/147075/venv-name/lib/python3.8/site-packages/scipy (version 1.10.1)
libxc:  4.3.4
units:  Angstrom and eV
cores: 18
OpenMP: False
OMP_NUM_THREADS: 1

---
input parameters:
  kpts: 
    density: 8.0
    gamma: True
  magmoms: [[4.4079912, 0, 0], [0.08032672, 0, 0], [0.08032672, 0, 0]]
  mixer: 
    backend: 'pulay'
    beta: 0.05
    method: 'sum'
    nmaxold: 5
    weight: 100
  mode: 
    name: 'pw'
    ecut: 800.0
    qspiral: array([0.11627907, 0.11627907, 0.        ])
  parallel: 
    kpt: None
    domain: 1
    band: 1
    order: 'kdb'
    stridebands: False
    augment_grids: False
    sl_auto: False
    sl_default: None
    sl_diagonalize: None
    sl_inverse_cholesky: None
    sl_lcao: None
    sl_lrtddft: None
    use_elpa: False
    elpasolver: '2stage'
    buffer_size: None
    gpu: False
  symmetry: 
    point_group: False
    time_reversal: False
  xc: 
    name: 'LDA'

#                        
#                        
#                        
#                        
#              I         
#                        
#                        
#        Mn              
#          I             
#                        
#                        
#                        
#                        
#                        

atoms: [  # symbols, positions [Ang] and initial magnetic moments
  [ Mn, [   0.000000,    0.000000,    7.649535], [ 4.408,  0.000,  0.000]], # 0
  [  I, [   2.082858,    1.202539,    9.299069], [ 0.080,  0.000,  0.000]], # 1
  [  I, [   0.000000,    2.405077,    6.000000], [ 0.080,  0.000,  0.000]]] # 2

cell: [  # Ang
#     x            y            z
  [   4.165716,    0.000000,    0.000000],
  [  -2.082858,    3.607616,    0.000000],
  [   0.000000,    0.000000,   15.299069]]

periodic: [True      , True      , False     ]
lengths:  [  4.165716,   4.165716,  15.299069]  # Ang
angles:   [ 90.000000,  90.000000, 120.000000]

symmetry:
  number of symmetries: 1
  rotations: [
    [[ 1,  0,  0], [ 0,  1,  0], [ 0,  0,  1]]]

bz sampling:
  number of bz points: 196
  number of ibz points: 196
  monkhorst-pack size: [14, 14, 1]
  monkhorst-pack shift: [0.03571428571428571, 0.03571428571428571, 0.0]
  points and weights: [
    [[ -0.42857143,  -0.42857143,   0.00000000], 0.00510204],  # 0
    [[ -0.42857143,  -0.35714286,   0.00000000], 0.00510204],  # 1
    [[ -0.42857143,  -0.28571429,   0.00000000], 0.00510204],  # 2
    [[ -0.42857143,  -0.21428571,   0.00000000], 0.00510204],  # 3
    [[ -0.42857143,  -0.14285714,   0.00000000], 0.00510204],  # 4
    [[ -0.42857143,  -0.07142857,   0.00000000], 0.00510204],  # 5
    [[ -0.42857143,   0.00000000,   0.00000000], 0.00510204],  # 6
    [[ -0.42857143,   0.07142857,   0.00000000], 0.00510204],  # 7
    [[ -0.42857143,   0.14285714,   0.00000000], 0.00510204],  # 8
    [[ -0.42857143,   0.21428571,   0.00000000], 0.00510204],  # 9
    # ...
    [[  0.50000000,   0.50000000,   0.00000000], 0.00510204]]  # 195

plane wave coefficients: 11927
cutoff: 800.0 eV

spin-components: 4  # (non-collinear spins)
bands: 42
valence electrons: 29.0
spin-degeneracy: 1
dtype: complex128

memory:
    wave functions: 3_105_768_960  # bytes  (172_542_720 per core)

parallelization:
    kpt:    18
    domain: 1
    band:   1

density:
  components: 4
  grid points: [ 28  28 100]
  charge: 0.0  # |e|

potential:
  grid points: [ 28  28 100]

species:
  Mn:
    name: Manganese
    id: 0d715a8018be061a6e9ea6f2d364ac92
    Z: 25.0
    valence: 15
    core: 10
    charge: 0.0
    file: /zhome/86/d/1666/PAW/gpaw-setups-0.9.20000/Mn.LDA.gz
    compensation charges: {type: gauss,
                           rc: 0.38,
                           lmax: 2}
    cutoffs: {filter: 2.14,
              core: 0.86}
    valence states:
      #              energy  rcut
      - 3s(2.00)   -85.387   1.275
      - 4s(2.00)    -5.282   1.275
      - 3p(6.00)   -54.493   1.281
      - 4p(0.00)    -1.471   1.281
      - 3d(5.00)    -7.009   1.138
      -  d          20.203   1.138
  
    # Using partial waves for Mn as LCAO basis

  I:
    name: Iodine
    id: b559721c0c096a7b4c8fc0e0f4de5cf4
    Z: 53.0
    valence: 7
    core: 46
    charge: 0.0
    file: /zhome/86/d/1666/PAW/gpaw-setups-0.9.20000/I.LDA.gz
    compensation charges: {type: gauss,
                           rc: 0.37,
                           lmax: 2}
    cutoffs: {filter: 2.06,
              core: 2.90}
    valence states:
      #              energy  rcut
      - 5s(2.00)   -17.626   1.164
      - 5p(5.00)    -7.241   1.164
      -  s           9.585   1.164
      -  p          19.970   1.164
      -  d           0.000   1.164
  
    # Using partial waves for I as LCAO basis

Reference energy: -418222.442431  # eV

eigensolver:
  name: 'Davidson'
  niter: 2
  converge_bands: 'occupied'
Density mixing:
  Method: sum
  Backend: pulay
  Linear mixing parameter: 0.05
  old densities: 5
  Damping of long wavelength oscillations: 100
occupation numbers:
  Fermi-Dirac:
    width: 0.1000  # eV
  

poisson solver:
  ecut: 6400.0  # eV

xc functional:
  name: None

convergence criteria:
- Maximum [total energy] change in last 3 cyles: 0.0005 eV / valence electron
- Maximum integral of absolute [dens]ity change: 0.0001 electrons / valence electron
- Maximum integral of absolute [eigenst]ate change: 4e-08 eV^2 / valence electron
maximum number of iterations: 333

#      iter     time        total  log10-change:
#                          energy   eigst   dens
# iter:   1 04:45:57   -15.168493                  +4.6,+0.0,+0.0
# iter:   2 04:46:27   -15.191386   -0.62  -1.49   +4.6,-0.0,+0.0
# iter:   3 04:46:56   -15.125442   -1.11  -1.52   +4.6,+0.0,+0.0
# iter:   4 04:47:26   -15.135016   -1.37  -1.58   +4.7,+0.0,-0.0
# iter:   5 04:47:55   -15.183192   -1.66  -1.79   +4.8,+0.0,-0.0
# iter:   6 04:48:24   -15.159313   -2.02  -2.26   +4.9,+0.0,+0.0
# iter:   7 04:48:53   -15.158778   -1.71  -2.28   +4.8,+0.0,+0.0
# iter:   8 04:49:23   -15.133859   -2.21  -2.36   +4.8,+0.0,+0.0
# iter:   9 04:49:52   -15.135505   -2.79  -2.77   +4.8,+0.0,+0.0
# iter:  10 04:50:21   -15.133489c  -2.81  -2.74   +4.8,+0.0,+0.0
# iter:  11 04:50:50   -15.133978c  -3.28  -2.83   +4.8,+0.0,+0.0
# iter:  12 04:51:19   -15.134505c  -3.50  -2.85   +4.8,+0.0,+0.0
# iter:  13 04:51:49   -15.135299c  -3.59  -2.84   +4.8,+0.0,-0.0
# iter:  14 04:52:18   -15.132610c  -3.31  -2.77   +4.8,+0.0,-0.0
# iter:  15 04:52:47   -15.132718c  -4.02  -3.13   +4.8,+0.0,-0.0
# iter:  16 04:53:17   -15.132880c  -4.05  -3.20   +4.8,+0.0,-0.0
# iter:  17 04:53:46   -15.133422c  -3.75  -3.24   +4.8,+0.0,+0.0
# iter:  18 04:54:15   -15.133123c  -4.48  -3.22   +4.8,+0.0,+0.0
# iter:  19 04:54:44   -15.132835c  -4.49  -3.36   +4.8,+0.0,+0.0
# iter:  20 04:55:13   -15.132976c  -4.81  -3.56   +4.8,+0.0,+0.0
# iter:  21 04:55:42   -15.132818c  -4.76  -3.56   +4.8,+0.0,+0.0
# iter:  22 04:56:11   -15.132807c  -5.09  -3.97   +4.8,+0.0,+0.0
# iter:  23 04:56:40   -15.132814c  -5.33  -3.98   +4.8,+0.0,+0.0
# iter:  24 04:57:10   -15.132810c  -5.50  -4.19c  +4.8,+0.0,+0.0
# iter:  25 04:57:39   -15.132813c  -5.64  -4.25c  +4.8,+0.0,+0.0
# iter:  26 04:58:08   -15.132839c  -5.54  -4.31c  +4.8,+0.0,+0.0
# iter:  27 04:58:37   -15.132818c  -5.72  -4.08c  +4.8,+0.0,+0.0
# iter:  28 04:59:06   -15.132819c  -6.06  -4.53c  +4.8,+0.0,+0.0
# iter:  29 04:59:36   -15.132818c  -6.22  -4.67c  +4.8,+0.0,+0.0
# iter:  30 05:00:06   -15.132819c  -6.35  -4.75c  +4.8,+0.0,+0.0
# iter:  31 05:00:35   -15.132818c  -6.45  -4.78c  +4.8,+0.0,+0.0
# iter:  32 05:01:04   -15.132818c  -6.61  -4.88c  +4.8,+0.0,+0.0
# iter:  33 05:01:33   -15.132818c  -6.76  -5.03c  +4.8,+0.0,+0.0
# iter:  34 05:02:03   -15.132819c  -6.90  -5.04c  +4.8,+0.0,+0.0
# iter:  35 05:02:32   -15.132819c  -7.05  -5.32c  +4.8,+0.0,+0.0
# iter:  36 05:03:01   -15.132819c  -7.19  -5.45c  +4.8,+0.0,+0.0
# iter:  37 05:03:30   -15.132819c  -7.32  -5.53c  +4.8,+0.0,+0.0
# iter:  38 05:04:00   -15.132819c  -7.46c -5.70c  +4.8,+0.0,+0.0
scf_steps: 38
energies:  # eV
  coulomb:         -12.757741
  zero:              0.093517
  xc:              -17.200967
  external:          0.000000
  kinetic:          14.733097
  spinorbit:         0.000000
  entropy:          -0.001448
  total:           -15.133542
  extrapolated:    -15.132819

dipole moment: [-5.596651, -9.693683, -13.312053]  # |e|*Ang

total magnetic moment: [4.835048, 0.013445, 0.000000]

local magnetic moments: [
  [ 4.345696, -0.000447,  0.000000],  # Mn 0
  [ 0.049239, -0.044125, -0.000000],  # I  1
  [ 0.049238, -0.044126, -0.000000]]  # I  2


Fermi level: -1.258 eV

kpt = [-0.429, -0.429, 0.000], weight = 0.005:
  Band      eig [eV]   occ [0-1]
     0       -82.198       1.000
   ...
    21        -3.947       1.000
    22        -3.922       1.000
    23        -3.818       1.000
    24        -3.755       1.000
    25        -3.612       1.000
    26        -3.575       1.000
    27        -2.125       1.000
    28        -2.084       1.000
    29        -0.550       0.001
    30        -0.182       0.000
    31        -0.146       0.000
    32         0.495       0.000
    33         0.602       0.000
    34         1.285       0.000
    35         2.334       0.000
    36         2.925       0.000
   ...
    41         5.483       0.000

kpt = [-0.429, -0.357, 0.000], weight = 0.005:
  Band      eig [eV]   occ [0-1]
     0       -82.198       1.000
   ...
    21        -4.055       1.000
    22        -3.954       1.000
    23        -3.862       1.000
    24        -3.710       1.000
    25        -3.562       1.000
    26        -3.532       1.000
    27        -2.213       1.000
    28        -2.123       1.000
    29        -0.437       0.000
    30        -0.205       0.000
    31        -0.145       0.000
    32         0.454       0.000
    33         0.551       0.000
    34         1.465       0.000
    35         2.395       0.000
    36         3.270       0.000
   ...
    41         4.875       0.000

kpt = [-0.429, -0.286, 0.000], weight = 0.005:
  Band      eig [eV]   occ [0-1]
     0       -82.198       1.000
   ...
    21        -4.155       1.000
    22        -3.988       1.000
    23        -3.806       1.000
    24        -3.734       1.000
    25        -3.520       1.000
    26        -3.507       1.000
    27        -2.292       1.000
    28        -2.137       1.000
    29        -0.333       0.000
    30        -0.241       0.000
    31        -0.151       0.000
    32         0.402       0.000
    33         0.541       0.000
    34         1.671       0.000
    35         2.438       0.000
    36         3.702       0.000
   ...
    41         5.132       0.000
(only showing first 3 out of 196 k-points)

Gap: 1.014 eV
Transition (v -> c):
  (s=0, k=90, n=28, [0.00, 0.00, 0.00]) -> (s=0, k=188, n=29, [0.50, 0.00, 0.00])
# Writing to Band_Conv/gsq-85.gpw (mode='')

---

timing:  # [seconds]
  Total: 1129.130  # ━━━━━━━━━━━━━━━━━━━━━━━━━━━━━━━━━━━━━━━━━━━━━━━━━━━━━━━━
  Init:    18.990  # ━
  SCF:   1109.578  # ━━━━━━━━━━━━━━━━━━━━━━━━━━━━━━━━━━━━━━━━━━━━━━━━━━━━━━━

Max RSS: 2452.730  # MiB
