#  __  _  _
# | _ |_)|_||  |
# |__||  | ||/\| - 24.1.0

User:   s194113@n-62-29-25
Date:   Thu May  2 01:44:23 2024
Arch:   x86_64
Pid:    9729
CWD:    /work3/s194113/10302/10302_NM/MnI2
Python: 3.8.5
gpaw:   /zhome/87/8/147075/venv-name/gpaw/gpaw (10808453a8)
_gpaw:  /zhome/87/8/147075/venv-name/gpaw/
        _gpaw.cpython-38-x86_64-linux-gnu.so (10808453a8)
ase:    /zhome/87/8/147075/venv-name/ase/ase (version 3.23.0b1-c36115a2db)
numpy:  /zhome/87/8/147075/venv-name/lib/python3.8/site-packages/numpy (version 1.24.4)
scipy:  /zhome/87/8/147075/venv-name/lib/python3.8/site-packages/scipy (version 1.10.1)
libxc:  4.3.4
units:  Angstrom and eV
cores: 12
OpenMP: False
OMP_NUM_THREADS: 1

---
input parameters:
  kpts: 
    density: 8.0
    gamma: True
  magmoms: [[4.4079912, 0, 0], [0.08032672, 0, 0], [0.08032672, 0, 0]]
  mixer: 
    backend: 'pulay'
    beta: 0.05
    method: 'sum'
    nmaxold: 5
    weight: 100
  mode: 
    name: 'pw'
    ecut: 800.0
    qspiral: array([0.34722222, 0.        , 0.        ])
  parallel: 
    kpt: None
    domain: 1
    band: 1
    order: 'kdb'
    stridebands: False
    augment_grids: False
    sl_auto: False
    sl_default: None
    sl_diagonalize: None
    sl_inverse_cholesky: None
    sl_lcao: None
    sl_lrtddft: None
    use_elpa: False
    elpasolver: '2stage'
    buffer_size: None
    gpu: False
  symmetry: 
    point_group: False
    time_reversal: False
  xc: 
    name: 'LDA'

#                        
#                        
#                        
#                        
#              I         
#                        
#                        
#        Mn              
#          I             
#                        
#                        
#                        
#                        
#                        

atoms: [  # symbols, positions [Ang] and initial magnetic moments
  [ Mn, [   0.000000,    0.000000,    7.649535], [ 4.408,  0.000,  0.000]], # 0
  [  I, [   2.082858,    1.202539,    9.299069], [ 0.080,  0.000,  0.000]], # 1
  [  I, [   0.000000,    2.405077,    6.000000], [ 0.080,  0.000,  0.000]]] # 2

cell: [  # Ang
#     x            y            z
  [   4.165716,    0.000000,    0.000000],
  [  -2.082858,    3.607616,    0.000000],
  [   0.000000,    0.000000,   15.299069]]

periodic: [True      , True      , False     ]
lengths:  [  4.165716,   4.165716,  15.299069]  # Ang
angles:   [ 90.000000,  90.000000, 120.000000]

symmetry:
  number of symmetries: 1
  rotations: [
    [[ 1,  0,  0], [ 0,  1,  0], [ 0,  0,  1]]]

bz sampling:
  number of bz points: 196
  number of ibz points: 196
  monkhorst-pack size: [14, 14, 1]
  monkhorst-pack shift: [0.03571428571428571, 0.03571428571428571, 0.0]
  points and weights: [
    [[ -0.42857143,  -0.42857143,   0.00000000], 0.00510204],  # 0
    [[ -0.42857143,  -0.35714286,   0.00000000], 0.00510204],  # 1
    [[ -0.42857143,  -0.28571429,   0.00000000], 0.00510204],  # 2
    [[ -0.42857143,  -0.21428571,   0.00000000], 0.00510204],  # 3
    [[ -0.42857143,  -0.14285714,   0.00000000], 0.00510204],  # 4
    [[ -0.42857143,  -0.07142857,   0.00000000], 0.00510204],  # 5
    [[ -0.42857143,   0.00000000,   0.00000000], 0.00510204],  # 6
    [[ -0.42857143,   0.07142857,   0.00000000], 0.00510204],  # 7
    [[ -0.42857143,   0.14285714,   0.00000000], 0.00510204],  # 8
    [[ -0.42857143,   0.21428571,   0.00000000], 0.00510204],  # 9
    # ...
    [[  0.50000000,   0.50000000,   0.00000000], 0.00510204]]  # 195

plane wave coefficients: 11927
cutoff: 800.0 eV

spin-components: 4  # (non-collinear spins)
bands: 42
valence electrons: 29.0
spin-degeneracy: 1
dtype: complex128

memory:
    wave functions: 3_105_768_960  # bytes  (258_814_080 per core)

parallelization:
    kpt:    12
    domain: 1
    band:   1

density:
  components: 4
  grid points: [ 28  28 100]
  charge: 0.0  # |e|

potential:
  grid points: [ 28  28 100]

species:
  Mn:
    name: Manganese
    id: 0d715a8018be061a6e9ea6f2d364ac92
    Z: 25.0
    valence: 15
    core: 10
    charge: 0.0
    file: /zhome/86/d/1666/PAW/gpaw-setups-0.9.20000/Mn.LDA.gz
    compensation charges: {type: gauss,
                           rc: 0.38,
                           lmax: 2}
    cutoffs: {filter: 2.14,
              core: 0.86}
    valence states:
      #              energy  rcut
      - 3s(2.00)   -85.387   1.275
      - 4s(2.00)    -5.282   1.275
      - 3p(6.00)   -54.493   1.281
      - 4p(0.00)    -1.471   1.281
      - 3d(5.00)    -7.009   1.138
      -  d          20.203   1.138
  
    # Using partial waves for Mn as LCAO basis

  I:
    name: Iodine
    id: b559721c0c096a7b4c8fc0e0f4de5cf4
    Z: 53.0
    valence: 7
    core: 46
    charge: 0.0
    file: /zhome/86/d/1666/PAW/gpaw-setups-0.9.20000/I.LDA.gz
    compensation charges: {type: gauss,
                           rc: 0.37,
                           lmax: 2}
    cutoffs: {filter: 2.06,
              core: 2.90}
    valence states:
      #              energy  rcut
      - 5s(2.00)   -17.626   1.164
      - 5p(5.00)    -7.241   1.164
      -  s           9.585   1.164
      -  p          19.970   1.164
      -  d           0.000   1.164
  
    # Using partial waves for I as LCAO basis

Reference energy: -418222.442431  # eV

eigensolver:
  name: 'Davidson'
  niter: 2
  converge_bands: 'occupied'
Density mixing:
  Method: sum
  Backend: pulay
  Linear mixing parameter: 0.05
  old densities: 5
  Damping of long wavelength oscillations: 100
occupation numbers:
  Fermi-Dirac:
    width: 0.1000  # eV
  

poisson solver:
  ecut: 6400.0  # eV

xc functional:
  name: None

convergence criteria:
- Maximum [total energy] change in last 3 cyles: 0.0005 eV / valence electron
- Maximum integral of absolute [dens]ity change: 0.0001 electrons / valence electron
- Maximum integral of absolute [eigenst]ate change: 4e-08 eV^2 / valence electron
maximum number of iterations: 333

#      iter     time        total  log10-change:
#                          energy   eigst   dens
# iter:   1 01:45:32   -15.041416                  +4.6,+0.0,+0.0
# iter:   2 01:46:15   -15.183270   -0.39  -1.49   +4.4,-0.0,-0.0
# iter:   3 01:46:59   -15.139441   -0.95  -1.52   +4.4,-0.0,-0.0
# iter:   4 01:47:42   -15.148008   -1.20  -1.57   +4.5,+0.0,-0.0
# iter:   5 01:48:26   -15.215124   -1.50  -1.77   +4.6,+0.0,+0.0
# iter:   6 01:49:09   -15.183933   -1.87  -2.21   +4.7,+0.0,+0.0
# iter:   7 01:49:52   -15.181788   -2.12  -2.25   +4.7,+0.0,+0.0
# iter:   8 01:50:36   -15.166218   -1.63  -2.22   +4.6,+0.0,-0.0
# iter:   9 01:51:19   -15.141484   -2.51  -2.39   +4.6,+0.0,+0.0
# iter:  10 01:52:03   -15.139417   -2.82  -2.76   +4.6,+0.0,-0.0
# iter:  11 01:52:46   -15.138508c  -3.04  -2.91   +4.6,+0.0,+0.0
# iter:  12 01:53:29   -15.139135c  -3.12  -2.98   +4.6,+0.0,-0.0
# iter:  13 01:54:12   -15.138330c  -3.43  -3.06   +4.6,+0.0,-0.0
# iter:  14 01:54:55   -15.138417c  -3.71  -3.50   +4.6,+0.0,-0.0
# iter:  15 01:55:38   -15.138354c  -3.86  -3.43   +4.6,+0.0,-0.0
# iter:  16 01:56:22   -15.138392c  -4.05  -3.52   +4.6,+0.0,-0.0
# iter:  17 01:57:05   -15.138401c  -4.18  -3.61   +4.6,+0.0,-0.0
# iter:  18 01:57:49   -15.138403c  -4.36  -4.17c  +4.6,+0.0,-0.0
# iter:  19 01:58:32   -15.138407c  -4.52  -4.32c  +4.6,+0.0,-0.0
# iter:  20 01:59:15   -15.138408c  -4.67  -4.55c  +4.6,+0.0,-0.0
# iter:  21 01:59:59   -15.138410c  -4.83  -4.31c  +4.6,+0.0,-0.0
# iter:  22 02:00:43   -15.138411c  -4.99  -4.81c  +4.6,+0.0,-0.0
# iter:  23 02:01:27   -15.138411c  -5.15  -4.84c  +4.6,+0.0,-0.0
# iter:  24 02:02:10   -15.138412c  -5.30  -5.01c  +4.6,+0.0,-0.0
# iter:  25 02:02:53   -15.138412c  -5.44  -5.08c  +4.6,+0.0,-0.0
# iter:  26 02:03:36   -15.138412c  -5.58  -5.16c  +4.6,+0.0,-0.0
# iter:  27 02:04:20   -15.138412c  -5.72  -5.32c  +4.6,+0.0,-0.0
# iter:  28 02:05:03   -15.138412c  -5.87  -5.43c  +4.6,+0.0,-0.0
# iter:  29 02:05:48   -15.138412c  -6.01  -5.54c  +4.6,+0.0,-0.0
# iter:  30 02:06:32   -15.138413c  -6.15  -5.68c  +4.6,+0.0,-0.0
# iter:  31 02:07:16   -15.138412c  -6.29  -5.44c  +4.6,+0.0,-0.0
# iter:  32 02:07:59   -15.138412c  -6.43  -5.91c  +4.6,+0.0,-0.0
# iter:  33 02:08:43   -15.138412c  -6.56  -5.93c  +4.6,+0.0,-0.0
# iter:  34 02:09:26   -15.138412c  -6.70  -5.94c  +4.6,+0.0,-0.0
# iter:  35 02:10:10   -15.138412c  -6.83  -6.06c  +4.6,+0.0,-0.0
# iter:  36 02:10:54   -15.138412c  -6.96  -6.06c  +4.6,+0.0,-0.0
# iter:  37 02:11:37   -15.138412c  -7.10  -6.07c  +4.6,+0.0,-0.0
# iter:  38 02:12:21   -15.138412c  -7.24  -5.94c  +4.6,+0.0,-0.0
# iter:  39 02:13:05   -15.138412c  -7.38  -6.15c  +4.6,+0.0,-0.0
# iter:  40 02:13:49   -15.138412c  -7.51c -6.23c  +4.6,+0.0,-0.0
scf_steps: 40
energies:  # eV
  coulomb:         -12.568794
  zero:              0.094085
  xc:              -17.162796
  external:          0.000000
  kinetic:          14.499716
  spinorbit:         0.000000
  entropy:          -0.001249
  total:           -15.139036
  extrapolated:    -15.138412

dipole moment: [-5.105159, -9.311950, -11.503880]  # |e|*Ang

total magnetic moment: [4.616955, 0.009240, -0.000000]

local magnetic moments: [
  [ 4.332512, -0.000299, -0.000000],  # Mn 0
  [-0.003765, -0.040348, -0.000000],  # I  1
  [ 0.035209, -0.020063, -0.000000]]  # I  2


Fermi level: -1.231 eV

kpt = [-0.429, -0.429, 0.000], weight = 0.005:
  Band      eig [eV]   occ [0-1]
     0       -82.180       1.000
   ...
    21        -3.969       1.000
    22        -3.905       1.000
    23        -3.794       1.000
    24        -3.731       1.000
    25        -3.485       1.000
    26        -3.431       1.000
    27        -2.203       1.000
    28        -2.033       1.000
    29        -0.485       0.001
    30        -0.211       0.000
    31        -0.143       0.000
    32         0.467       0.000
    33         0.571       0.000
    34         1.410       0.000
    35         2.345       0.000
    36         3.022       0.000
   ...
    41         5.189       0.000

kpt = [-0.429, -0.357, 0.000], weight = 0.005:
  Band      eig [eV]   occ [0-1]
     0       -82.180       1.000
   ...
    21        -3.966       1.000
    22        -3.871       1.000
    23        -3.775       1.000
    24        -3.635       1.000
    25        -3.483       1.000
    26        -3.379       1.000
    27        -2.277       1.000
    28        -2.012       1.000
    29        -0.440       0.000
    30        -0.212       0.000
    31        -0.149       0.000
    32         0.450       0.000
    33         0.523       0.000
    34         1.521       0.000
    35         2.336       0.000
    36         3.109       0.000
   ...
    41         5.040       0.000

kpt = [-0.429, -0.286, 0.000], weight = 0.005:
  Band      eig [eV]   occ [0-1]
     0       -82.180       1.000
   ...
    21        -4.019       1.000
    22        -3.813       1.000
    23        -3.787       1.000
    24        -3.591       1.000
    25        -3.483       1.000
    26        -3.316       1.000
    27        -2.336       1.000
    28        -2.047       1.000
    29        -0.350       0.000
    30        -0.223       0.000
    31        -0.176       0.000
    32         0.363       0.000
    33         0.517       0.000
    34         1.788       0.000
    35         2.492       0.000
    36         3.455       0.000
   ...
    41         5.186       0.000
(only showing first 3 out of 196 k-points)

Gap: 1.041 eV
Transition (v -> c):
  (s=0, k=90, n=28, [0.00, 0.00, 0.00]) -> (s=0, k=188, n=29, [0.50, 0.00, 0.00])
# Writing to Band_Conv/gsq-25.gpw (mode='')

