#  __  _  _
# | _ |_)|_||  |
# |__||  | ||/\| - 24.1.0

User:   s194113@n-62-29-25
Date:   Thu May  2 17:04:45 2024
Arch:   x86_64
Pid:    9729
CWD:    /work3/s194113/10302/10302_NM/MnI2
Python: 3.8.5
gpaw:   /zhome/87/8/147075/venv-name/gpaw/gpaw (10808453a8)
_gpaw:  /zhome/87/8/147075/venv-name/gpaw/
        _gpaw.cpython-38-x86_64-linux-gnu.so (10808453a8)
ase:    /zhome/87/8/147075/venv-name/ase/ase (version 3.23.0b1-c36115a2db)
numpy:  /zhome/87/8/147075/venv-name/lib/python3.8/site-packages/numpy (version 1.24.4)
scipy:  /zhome/87/8/147075/venv-name/lib/python3.8/site-packages/scipy (version 1.10.1)
libxc:  4.3.4
units:  Angstrom and eV
cores: 12
OpenMP: False
OMP_NUM_THREADS: 1

---
input parameters:
  kpts: 
    density: 8.0
    gamma: True
  magmoms: [[4.4079912, 0, 0], [0.08032672, 0, 0], [0.08032672, 0, 0]]
  mixer: 
    backend: 'pulay'
    beta: 0.05
    method: 'sum'
    nmaxold: 5
    weight: 100
  mode: 
    name: 'pw'
    ecut: 800.0
    qspiral: array([0.35714286, 0.28571429, 0.        ])
  parallel: 
    kpt: None
    domain: 1
    band: 1
    order: 'kdb'
    stridebands: False
    augment_grids: False
    sl_auto: False
    sl_default: None
    sl_diagonalize: None
    sl_inverse_cholesky: None
    sl_lcao: None
    sl_lrtddft: None
    use_elpa: False
    elpasolver: '2stage'
    buffer_size: None
    gpu: False
  symmetry: 
    point_group: False
    time_reversal: False
  xc: 
    name: 'LDA'

#                        
#                        
#                        
#                        
#              I         
#                        
#                        
#        Mn              
#          I             
#                        
#                        
#                        
#                        
#                        

atoms: [  # symbols, positions [Ang] and initial magnetic moments
  [ Mn, [   0.000000,    0.000000,    7.649535], [ 4.408,  0.000,  0.000]], # 0
  [  I, [   2.082858,    1.202539,    9.299069], [ 0.080,  0.000,  0.000]], # 1
  [  I, [   0.000000,    2.405077,    6.000000], [ 0.080,  0.000,  0.000]]] # 2

cell: [  # Ang
#     x            y            z
  [   4.165716,    0.000000,    0.000000],
  [  -2.082858,    3.607616,    0.000000],
  [   0.000000,    0.000000,   15.299069]]

periodic: [True      , True      , False     ]
lengths:  [  4.165716,   4.165716,  15.299069]  # Ang
angles:   [ 90.000000,  90.000000, 120.000000]

symmetry:
  number of symmetries: 1
  rotations: [
    [[ 1,  0,  0], [ 0,  1,  0], [ 0,  0,  1]]]

bz sampling:
  number of bz points: 196
  number of ibz points: 196
  monkhorst-pack size: [14, 14, 1]
  monkhorst-pack shift: [0.03571428571428571, 0.03571428571428571, 0.0]
  points and weights: [
    [[ -0.42857143,  -0.42857143,   0.00000000], 0.00510204],  # 0
    [[ -0.42857143,  -0.35714286,   0.00000000], 0.00510204],  # 1
    [[ -0.42857143,  -0.28571429,   0.00000000], 0.00510204],  # 2
    [[ -0.42857143,  -0.21428571,   0.00000000], 0.00510204],  # 3
    [[ -0.42857143,  -0.14285714,   0.00000000], 0.00510204],  # 4
    [[ -0.42857143,  -0.07142857,   0.00000000], 0.00510204],  # 5
    [[ -0.42857143,   0.00000000,   0.00000000], 0.00510204],  # 6
    [[ -0.42857143,   0.07142857,   0.00000000], 0.00510204],  # 7
    [[ -0.42857143,   0.14285714,   0.00000000], 0.00510204],  # 8
    [[ -0.42857143,   0.21428571,   0.00000000], 0.00510204],  # 9
    # ...
    [[  0.50000000,   0.50000000,   0.00000000], 0.00510204]]  # 195

plane wave coefficients: 11927
cutoff: 800.0 eV

spin-components: 4  # (non-collinear spins)
bands: 42
valence electrons: 29.0
spin-degeneracy: 1
dtype: complex128

memory:
    wave functions: 3_105_768_960  # bytes  (258_814_080 per core)

parallelization:
    kpt:    12
    domain: 1
    band:   1

density:
  components: 4
  grid points: [ 28  28 100]
  charge: 0.0  # |e|

potential:
  grid points: [ 28  28 100]

species:
  Mn:
    name: Manganese
    id: 0d715a8018be061a6e9ea6f2d364ac92
    Z: 25.0
    valence: 15
    core: 10
    charge: 0.0
    file: /zhome/86/d/1666/PAW/gpaw-setups-0.9.20000/Mn.LDA.gz
    compensation charges: {type: gauss,
                           rc: 0.38,
                           lmax: 2}
    cutoffs: {filter: 2.14,
              core: 0.86}
    valence states:
      #              energy  rcut
      - 3s(2.00)   -85.387   1.275
      - 4s(2.00)    -5.282   1.275
      - 3p(6.00)   -54.493   1.281
      - 4p(0.00)    -1.471   1.281
      - 3d(5.00)    -7.009   1.138
      -  d          20.203   1.138
  
    # Using partial waves for Mn as LCAO basis

  I:
    name: Iodine
    id: b559721c0c096a7b4c8fc0e0f4de5cf4
    Z: 53.0
    valence: 7
    core: 46
    charge: 0.0
    file: /zhome/86/d/1666/PAW/gpaw-setups-0.9.20000/I.LDA.gz
    compensation charges: {type: gauss,
                           rc: 0.37,
                           lmax: 2}
    cutoffs: {filter: 2.06,
              core: 2.90}
    valence states:
      #              energy  rcut
      - 5s(2.00)   -17.626   1.164
      - 5p(5.00)    -7.241   1.164
      -  s           9.585   1.164
      -  p          19.970   1.164
      -  d           0.000   1.164
  
    # Using partial waves for I as LCAO basis

Reference energy: -418222.442431  # eV

eigensolver:
  name: 'Davidson'
  niter: 2
  converge_bands: 'occupied'
Density mixing:
  Method: sum
  Backend: pulay
  Linear mixing parameter: 0.05
  old densities: 5
  Damping of long wavelength oscillations: 100
occupation numbers:
  Fermi-Dirac:
    width: 0.1000  # eV
  

poisson solver:
  ecut: 6400.0  # eV

xc functional:
  name: None

convergence criteria:
- Maximum [total energy] change in last 3 cyles: 0.0005 eV / valence electron
- Maximum integral of absolute [dens]ity change: 0.0001 electrons / valence electron
- Maximum integral of absolute [eigenst]ate change: 4e-08 eV^2 / valence electron
maximum number of iterations: 333

#      iter     time        total  log10-change:
#                          energy   eigst   dens
# iter:   1 17:05:56   -14.651655                  +4.6,+0.0,+0.0
# iter:   2 17:06:41   -15.139793   -0.07  -1.49   +4.1,-0.0,+0.0
# iter:   3 17:07:25   -15.138285   -0.69  -1.52   +4.0,-0.0,+0.0
# iter:   4 17:08:10   -15.158173   -1.01  -1.56   +4.1,-0.0,+0.0
# iter:   5 17:08:54   -15.255915   -1.30  -1.75   +4.3,-0.0,+0.0
# iter:   6 17:09:38   -15.158238   -1.57  -2.14   +4.4,-0.0,+0.0
# iter:   7 17:10:22   -15.149935   -1.67  -2.30   +4.3,+0.0,+0.0
# iter:   8 17:11:06   -15.141987   -2.11  -2.22   +4.3,+0.0,+0.0
# iter:   9 17:11:50   -15.143238c  -2.36  -2.95   +4.3,+0.0,+0.0
# iter:  10 17:12:33   -15.142609c  -2.57  -3.01   +4.3,+0.0,+0.0
# iter:  11 17:13:17   -15.142360c  -2.76  -3.05   +4.3,+0.0,+0.0
# iter:  12 17:14:01   -15.142421c  -2.96  -3.29   +4.3,+0.0,+0.0
# iter:  13 17:14:45   -15.142496c  -3.14  -3.48   +4.3,+0.0,+0.0
# iter:  14 17:15:28   -15.142541c  -3.33  -3.53   +4.3,+0.0,+0.0
# iter:  15 17:16:12   -15.142576c  -3.51  -3.55   +4.3,+0.0,+0.0
# iter:  16 17:16:56   -15.142545c  -3.68  -3.57   +4.3,+0.0,+0.0
# iter:  17 17:17:39   -15.142549c  -3.86  -3.63   +4.3,+0.0,+0.0
# iter:  18 17:18:23   -15.142561c  -4.01  -3.65   +4.3,+0.0,+0.0
# iter:  19 17:19:07   -15.142553c  -4.18  -4.00c  +4.3,+0.0,+0.0
# iter:  20 17:19:51   -15.142546c  -4.33  -4.14c  +4.3,+0.0,+0.0
# iter:  21 17:20:35   -15.142545c  -4.49  -4.38c  +4.3,+0.0,+0.0
# iter:  22 17:21:19   -15.142549c  -4.64  -4.40c  +4.3,+0.0,+0.0
# iter:  23 17:22:03   -15.142546c  -4.78  -4.28c  +4.3,+0.0,+0.0
# iter:  24 17:22:46   -15.142547c  -4.93  -4.77c  +4.3,+0.0,+0.0
# iter:  25 17:23:31   -15.142547c  -5.06  -4.76c  +4.3,+0.0,+0.0
# iter:  26 17:24:15   -15.142546c  -5.20  -5.07c  +4.3,+0.0,+0.0
# iter:  27 17:24:58   -15.142547c  -5.33  -5.07c  +4.3,+0.0,+0.0
# iter:  28 17:25:42   -15.142547c  -5.46  -5.36c  +4.3,+0.0,+0.0
# iter:  29 17:26:26   -15.142547c  -5.59  -5.39c  +4.3,+0.0,+0.0
# iter:  30 17:27:10   -15.142547c  -5.72  -5.45c  +4.3,+0.0,+0.0
# iter:  31 17:27:53   -15.142547c  -5.85  -5.42c  +4.3,+0.0,+0.0
# iter:  32 17:28:37   -15.142547c  -5.98  -5.69c  +4.3,+0.0,+0.0
# iter:  33 17:29:21   -15.142547c  -6.10  -5.65c  +4.3,+0.0,-0.0
# iter:  34 17:30:05   -15.142547c  -6.25  -5.64c  +4.3,+0.0,-0.0
# iter:  35 17:30:49   -15.142547c  -6.37  -6.04c  +4.3,+0.0,+0.0
# iter:  36 17:31:33   -15.142547c  -6.50  -6.07c  +4.3,+0.0,-0.0
# iter:  37 17:32:17   -15.142547c  -6.62  -6.13c  +4.3,+0.0,-0.0
# iter:  38 17:33:01   -15.142547c  -6.74  -6.18c  +4.3,+0.0,+0.0
# iter:  39 17:33:45   -15.142547c  -6.86  -6.25c  +4.3,+0.0,+0.0
# iter:  40 17:34:29   -15.142547c  -6.98  -6.44c  +4.3,+0.0,+0.0
# iter:  41 17:35:13   -15.142547c  -7.10  -6.51c  +4.3,+0.0,+0.0
# iter:  42 17:35:56   -15.142547c  -7.21  -6.77c  +4.3,+0.0,-0.0
# iter:  43 17:36:40   -15.142547c  -7.33  -6.93c  +4.3,+0.0,-0.0
# iter:  44 17:37:24   -15.142547c  -7.45c -6.96c  +4.3,+0.0,-0.0
scf_steps: 44
energies:  # eV
  coulomb:         -12.449451
  zero:              0.094399
  xc:              -17.137837
  external:          0.000000
  kinetic:          14.350806
  spinorbit:         0.000000
  entropy:          -0.000928
  total:           -15.143011
  extrapolated:    -15.142547

dipole moment: [-4.787796, -8.432246, -9.226320]  # |e|*Ang

total magnetic moment: [4.313056, 0.000697, -0.000000]

local magnetic moments: [
  [ 4.322501, -0.000011,  0.000000],  # Mn 0
  [-0.005675,  0.000000,  0.000000],  # I  1
  [ 0.003538, -0.004437,  0.000000]]  # I  2


Fermi level: -1.215 eV

kpt = [-0.429, -0.429, 0.000], weight = 0.005:
  Band      eig [eV]   occ [0-1]
     0       -82.168       1.000
   ...
    21        -4.138       1.000
    22        -4.078       1.000
    23        -3.743       1.000
    24        -3.682       1.000
    25        -3.543       1.000
    26        -3.475       1.000
    27        -2.261       1.000
    28        -2.136       1.000
    29        -0.296       0.000
    30        -0.246       0.000
    31        -0.153       0.000
    32         0.433       0.000
    33         0.492       0.000
    34         1.727       0.000
    35         2.478       0.000
    36         3.707       0.000
   ...
    41         4.850       0.000

kpt = [-0.429, -0.357, 0.000], weight = 0.005:
  Band      eig [eV]   occ [0-1]
     0       -82.168       1.000
   ...
    21        -3.991       1.000
    22        -3.927       1.000
    23        -3.742       1.000
    24        -3.659       1.000
    25        -3.502       1.000
    26        -3.356       1.000
    27        -2.290       1.000
    28        -2.027       1.000
    29        -0.366       0.000
    30        -0.247       0.000
    31        -0.169       0.000
    32         0.419       0.000
    33         0.534       0.000
    34         1.591       0.000
    35         2.432       0.000
    36         3.338       0.000
   ...
    41         4.834       0.000

kpt = [-0.429, -0.286, 0.000], weight = 0.005:
  Band      eig [eV]   occ [0-1]
     0       -82.168       1.000
   ...
    21        -3.931       1.000
    22        -3.730       1.000
    23        -3.678       1.000
    24        -3.551       1.000
    25        -3.447       1.000
    26        -3.255       1.000
    27        -2.258       1.000
    28        -1.951       0.999
    29        -0.459       0.001
    30        -0.248       0.000
    31        -0.173       0.000
    32         0.420       0.000
    33         0.543       0.000
    34         1.489       0.000
    35         2.355       0.000
    36         3.042       0.000
   ...
    41         4.664       0.000
(only showing first 3 out of 196 k-points)

Gap: 1.389 eV
Transition (v -> c):
  (s=0, k=47, n=28, [-0.21, -0.07, 0.00]) -> (s=0, k=22, n=29, [-0.36, 0.14, 0.00])
