#  __  _  _
# | _ |_)|_||  |
# |__||  | ||/\| - 24.1.0

User:   s194113@n-62-29-25
Date:   Thu May  2 14:21:13 2024
Arch:   x86_64
Pid:    9729
CWD:    /work3/s194113/10302/10302_NM/MnI2
Python: 3.8.5
gpaw:   /zhome/87/8/147075/venv-name/gpaw/gpaw (10808453a8)
_gpaw:  /zhome/87/8/147075/venv-name/gpaw/
        _gpaw.cpython-38-x86_64-linux-gnu.so (10808453a8)
ase:    /zhome/87/8/147075/venv-name/ase/ase (version 3.23.0b1-c36115a2db)
numpy:  /zhome/87/8/147075/venv-name/lib/python3.8/site-packages/numpy (version 1.24.4)
scipy:  /zhome/87/8/147075/venv-name/lib/python3.8/site-packages/scipy (version 1.10.1)
libxc:  4.3.4
units:  Angstrom and eV
cores: 12
OpenMP: False
OMP_NUM_THREADS: 1

---
input parameters:
  kpts: 
    density: 8.0
    gamma: True
  magmoms: [[4.4079912, 0, 0], [0.08032672, 0, 0], [0.08032672, 0, 0]]
  mixer: 
    backend: 'pulay'
    beta: 0.05
    method: 'sum'
    nmaxold: 5
    weight: 100
  mode: 
    name: 'pw'
    ecut: 800.0
    qspiral: array([0.3968254 , 0.20634921, 0.        ])
  parallel: 
    kpt: None
    domain: 1
    band: 1
    order: 'kdb'
    stridebands: False
    augment_grids: False
    sl_auto: False
    sl_default: None
    sl_diagonalize: None
    sl_inverse_cholesky: None
    sl_lcao: None
    sl_lrtddft: None
    use_elpa: False
    elpasolver: '2stage'
    buffer_size: None
    gpu: False
  symmetry: 
    point_group: False
    time_reversal: False
  xc: 
    name: 'LDA'

#                        
#                        
#                        
#                        
#              I         
#                        
#                        
#        Mn              
#          I             
#                        
#                        
#                        
#                        
#                        

atoms: [  # symbols, positions [Ang] and initial magnetic moments
  [ Mn, [   0.000000,    0.000000,    7.649535], [ 4.408,  0.000,  0.000]], # 0
  [  I, [   2.082858,    1.202539,    9.299069], [ 0.080,  0.000,  0.000]], # 1
  [  I, [   0.000000,    2.405077,    6.000000], [ 0.080,  0.000,  0.000]]] # 2

cell: [  # Ang
#     x            y            z
  [   4.165716,    0.000000,    0.000000],
  [  -2.082858,    3.607616,    0.000000],
  [   0.000000,    0.000000,   15.299069]]

periodic: [True      , True      , False     ]
lengths:  [  4.165716,   4.165716,  15.299069]  # Ang
angles:   [ 90.000000,  90.000000, 120.000000]

symmetry:
  number of symmetries: 1
  rotations: [
    [[ 1,  0,  0], [ 0,  1,  0], [ 0,  0,  1]]]

bz sampling:
  number of bz points: 196
  number of ibz points: 196
  monkhorst-pack size: [14, 14, 1]
  monkhorst-pack shift: [0.03571428571428571, 0.03571428571428571, 0.0]
  points and weights: [
    [[ -0.42857143,  -0.42857143,   0.00000000], 0.00510204],  # 0
    [[ -0.42857143,  -0.35714286,   0.00000000], 0.00510204],  # 1
    [[ -0.42857143,  -0.28571429,   0.00000000], 0.00510204],  # 2
    [[ -0.42857143,  -0.21428571,   0.00000000], 0.00510204],  # 3
    [[ -0.42857143,  -0.14285714,   0.00000000], 0.00510204],  # 4
    [[ -0.42857143,  -0.07142857,   0.00000000], 0.00510204],  # 5
    [[ -0.42857143,   0.00000000,   0.00000000], 0.00510204],  # 6
    [[ -0.42857143,   0.07142857,   0.00000000], 0.00510204],  # 7
    [[ -0.42857143,   0.14285714,   0.00000000], 0.00510204],  # 8
    [[ -0.42857143,   0.21428571,   0.00000000], 0.00510204],  # 9
    # ...
    [[  0.50000000,   0.50000000,   0.00000000], 0.00510204]]  # 195

plane wave coefficients: 11927
cutoff: 800.0 eV

spin-components: 4  # (non-collinear spins)
bands: 42
valence electrons: 29.0
spin-degeneracy: 1
dtype: complex128

memory:
    wave functions: 3_105_768_960  # bytes  (258_814_080 per core)

parallelization:
    kpt:    12
    domain: 1
    band:   1

density:
  components: 4
  grid points: [ 28  28 100]
  charge: 0.0  # |e|

potential:
  grid points: [ 28  28 100]

species:
  Mn:
    name: Manganese
    id: 0d715a8018be061a6e9ea6f2d364ac92
    Z: 25.0
    valence: 15
    core: 10
    charge: 0.0
    file: /zhome/86/d/1666/PAW/gpaw-setups-0.9.20000/Mn.LDA.gz
    compensation charges: {type: gauss,
                           rc: 0.38,
                           lmax: 2}
    cutoffs: {filter: 2.14,
              core: 0.86}
    valence states:
      #              energy  rcut
      - 3s(2.00)   -85.387   1.275
      - 4s(2.00)    -5.282   1.275
      - 3p(6.00)   -54.493   1.281
      - 4p(0.00)    -1.471   1.281
      - 3d(5.00)    -7.009   1.138
      -  d          20.203   1.138
  
    # Using partial waves for Mn as LCAO basis

  I:
    name: Iodine
    id: b559721c0c096a7b4c8fc0e0f4de5cf4
    Z: 53.0
    valence: 7
    core: 46
    charge: 0.0
    file: /zhome/86/d/1666/PAW/gpaw-setups-0.9.20000/I.LDA.gz
    compensation charges: {type: gauss,
                           rc: 0.37,
                           lmax: 2}
    cutoffs: {filter: 2.06,
              core: 2.90}
    valence states:
      #              energy  rcut
      - 5s(2.00)   -17.626   1.164
      - 5p(5.00)    -7.241   1.164
      -  s           9.585   1.164
      -  p          19.970   1.164
      -  d           0.000   1.164
  
    # Using partial waves for I as LCAO basis

Reference energy: -418222.442431  # eV

eigensolver:
  name: 'Davidson'
  niter: 2
  converge_bands: 'occupied'
Density mixing:
  Method: sum
  Backend: pulay
  Linear mixing parameter: 0.05
  old densities: 5
  Damping of long wavelength oscillations: 100
occupation numbers:
  Fermi-Dirac:
    width: 0.1000  # eV
  

poisson solver:
  ecut: 6400.0  # eV

xc functional:
  name: None

convergence criteria:
- Maximum [total energy] change in last 3 cyles: 0.0005 eV / valence electron
- Maximum integral of absolute [dens]ity change: 0.0001 electrons / valence electron
- Maximum integral of absolute [eigenst]ate change: 4e-08 eV^2 / valence electron
maximum number of iterations: 333

#      iter     time        total  log10-change:
#                          energy   eigst   dens
# iter:   1 14:22:22   -14.715671                  +4.6,+0.0,+0.0
# iter:   2 14:23:07   -15.147082   -0.11  -1.49   +4.1,-0.0,+0.0
# iter:   3 14:23:52   -15.138764   -0.73  -1.52   +4.1,-0.0,-0.0
# iter:   4 14:24:36   -15.157075   -1.03  -1.56   +4.2,-0.0,+0.0
# iter:   5 14:25:21   -15.250415   -1.33  -1.75   +4.4,-0.0,+0.0
# iter:   6 14:26:05   -15.159361   -1.61  -2.15   +4.4,+0.0,+0.0
# iter:   7 14:26:50   -15.154416   -1.64  -2.30   +4.4,+0.0,+0.0
# iter:   8 14:27:35   -15.141159   -2.13  -2.19   +4.3,+0.0,+0.0
# iter:   9 14:28:19   -15.141512c  -2.41  -2.94   +4.3,+0.0,+0.0
# iter:  10 14:29:04   -15.142547c  -2.60  -3.05   +4.3,+0.0,+0.0
# iter:  11 14:29:49   -15.141441c  -2.79  -2.95   +4.3,+0.0,+0.0
# iter:  12 14:30:34   -15.141534c  -3.00  -3.38   +4.3,+0.0,+0.0
# iter:  13 14:31:19   -15.141574c  -3.19  -3.49   +4.3,+0.0,+0.0
# iter:  14 14:32:03   -15.141704c  -3.36  -3.53   +4.3,+0.0,+0.0
# iter:  15 14:32:48   -15.141608c  -3.53  -3.53   +4.3,+0.0,+0.0
# iter:  16 14:33:32   -15.141633c  -3.73  -3.57   +4.3,+0.0,+0.0
# iter:  17 14:34:17   -15.141636c  -3.89  -3.89   +4.3,+0.0,+0.0
# iter:  18 14:35:02   -15.141637c  -4.07  -4.42c  +4.3,+0.0,+0.0
# iter:  19 14:35:46   -15.141640c  -4.23  -4.49c  +4.3,+0.0,+0.0
# iter:  20 14:36:31   -15.141648c  -4.38  -4.45c  +4.3,+0.0,+0.0
# iter:  21 14:37:15   -15.141645c  -4.53  -4.15c  +4.3,+0.0,+0.0
# iter:  22 14:38:00   -15.141643c  -4.68  -4.34c  +4.3,+0.0,+0.0
# iter:  23 14:38:44   -15.141642c  -4.82  -4.42c  +4.3,+0.0,+0.0
# iter:  24 14:39:29   -15.141643c  -4.97  -4.61c  +4.3,+0.0,+0.0
# iter:  25 14:40:13   -15.141643c  -5.12  -4.60c  +4.3,+0.0,+0.0
# iter:  26 14:40:58   -15.141641c  -5.24  -4.61c  +4.3,+0.0,+0.0
# iter:  27 14:41:43   -15.141642c  -5.40  -4.86c  +4.3,+0.0,+0.0
# iter:  28 14:42:27   -15.141642c  -5.53  -5.17c  +4.3,+0.0,+0.0
# iter:  29 14:43:12   -15.141641c  -5.66  -5.32c  +4.3,+0.0,+0.0
# iter:  30 14:43:56   -15.141642c  -5.79  -5.35c  +4.3,+0.0,+0.0
# iter:  31 14:44:41   -15.141642c  -5.93  -5.53c  +4.3,+0.0,+0.0
# iter:  32 14:45:25   -15.141642c  -6.05  -5.73c  +4.3,+0.0,+0.0
# iter:  33 14:46:10   -15.141642c  -6.18  -5.88c  +4.3,+0.0,+0.0
# iter:  34 14:46:54   -15.141641c  -6.30  -5.87c  +4.3,+0.0,+0.0
# iter:  35 14:47:39   -15.141641c  -6.43  -5.93c  +4.3,+0.0,+0.0
# iter:  36 14:48:23   -15.141641c  -6.55  -6.03c  +4.3,+0.0,+0.0
# iter:  37 14:49:08   -15.141642c  -6.67  -6.16c  +4.3,+0.0,+0.0
# iter:  38 14:49:53   -15.141641c  -6.79  -6.22c  +4.3,+0.0,+0.0
# iter:  39 14:50:37   -15.141642c  -6.91  -6.22c  +4.3,+0.0,+0.0
# iter:  40 14:51:22   -15.141642c  -7.02  -6.30c  +4.3,+0.0,+0.0
# iter:  41 14:52:06   -15.141642c  -7.15  -6.44c  +4.3,+0.0,+0.0
# iter:  42 14:52:50   -15.141642c  -7.27  -6.58c  +4.3,+0.0,+0.0
# iter:  43 14:53:35   -15.141641c  -7.39  -6.70c  +4.3,+0.0,+0.0
# iter:  44 14:54:20   -15.141641c  -7.50c -6.88c  +4.3,+0.0,+0.0
scf_steps: 44
energies:  # eV
  coulomb:         -12.470075
  zero:              0.094361
  xc:              -17.141816
  external:          0.000000
  kinetic:          14.376391
  spinorbit:         0.000000
  entropy:          -0.001003
  total:           -15.142143
  extrapolated:    -15.141641

dipole moment: [-4.747391, -8.577163, -9.407559]  # |e|*Ang

total magnetic moment: [4.347394, 0.001302, 0.000000]

local magnetic moments: [
  [ 4.324088, -0.000029,  0.000000],  # Mn 0
  [-0.013799,  0.000000,  0.000000],  # I  1
  [ 0.011000, -0.008332,  0.000000]]  # I  2


Fermi level: -1.213 eV

kpt = [-0.429, -0.429, 0.000], weight = 0.005:
  Band      eig [eV]   occ [0-1]
     0       -82.170       1.000
   ...
    21        -4.147       1.000
    22        -4.009       1.000
    23        -3.776       1.000
    24        -3.687       1.000
    25        -3.519       1.000
    26        -3.473       1.000
    27        -2.255       1.000
    28        -2.116       1.000
    29        -0.316       0.000
    30        -0.256       0.000
    31        -0.147       0.000
    32         0.429       0.000
    33         0.517       0.000
    34         1.675       0.000
    35         2.417       0.000
    36         3.650       0.000
   ...
    41         4.765       0.000

kpt = [-0.429, -0.357, 0.000], weight = 0.005:
  Band      eig [eV]   occ [0-1]
     0       -82.170       1.000
   ...
    21        -4.019       1.000
    22        -3.858       1.000
    23        -3.756       1.000
    24        -3.647       1.000
    25        -3.485       1.000
    26        -3.358       1.000
    27        -2.311       1.000
    28        -2.000       1.000
    29        -0.383       0.000
    30        -0.243       0.000
    31        -0.164       0.000
    32         0.408       0.000
    33         0.551       0.000
    34         1.571       0.000
    35         2.421       0.000
    36         3.248       0.000
   ...
    41         5.054       0.000

kpt = [-0.429, -0.286, 0.000], weight = 0.005:
  Band      eig [eV]   occ [0-1]
     0       -82.170       1.000
   ...
    21        -3.951       1.000
    22        -3.673       1.000
    23        -3.641       1.000
    24        -3.567       1.000
    25        -3.446       1.000
    26        -3.250       1.000
    27        -2.313       1.000
    28        -1.934       0.999
    29        -0.446       0.000
    30        -0.224       0.000
    31        -0.188       0.000
    32         0.384       0.000
    33         0.552       0.000
    34         1.543       0.000
    35         2.451       0.000
    36         3.054       0.000
   ...
    41         4.858       0.000
(only showing first 3 out of 196 k-points)

Gap: 1.339 eV
Transition (v -> c):
  (s=0, k=47, n=28, [-0.21, -0.07, 0.00]) -> (s=0, k=35, n=29, [-0.29, 0.07, 0.00])
# Writing to Band_Conv/gsq-49.gpw (mode='')

---

timing:  # [seconds]
  Total: 3936.992  # ━━━━━━━━━━━━━━━━━━━━━━━━━━━━━━━━━━━━━━━━━━━━━━━━━━━━━━━━
  Init:    27.260  # ╸
  SCF:   1958.937  # ━━━━━━━━━━━━━━━━━━━━━━━━━━━━

Max RSS: 3058.289  # MiB
