#  __  _  _
# | _ |_)|_||  |
# |__||  | ||/\| - 24.1.0

User:   s194113@n-62-29-34
Date:   Tue May  7 07:14:53 2024
Arch:   x86_64
Pid:    15878
CWD:    /work3/s194113/10302/10302_NM/MnI2
Python: 3.8.5
gpaw:   /zhome/87/8/147075/venv-name/gpaw/gpaw (10808453a8)
_gpaw:  /zhome/87/8/147075/venv-name/gpaw/
        _gpaw.cpython-38-x86_64-linux-gnu.so (10808453a8)
ase:    /zhome/87/8/147075/venv-name/ase/ase (version 3.23.0b1-c36115a2db)
numpy:  /zhome/87/8/147075/venv-name/lib/python3.8/site-packages/numpy (version 1.24.4)
scipy:  /zhome/87/8/147075/venv-name/lib/python3.8/site-packages/scipy (version 1.10.1)
libxc:  4.3.4
units:  Angstrom and eV
cores: 18
OpenMP: False
OMP_NUM_THREADS: 1

---
input parameters:
  kpts: 
    density: 8.0
    gamma: True
  magmoms: [[4.4079912, 0, 0], [0.08032672, 0, 0], [0.08032672, 0, 0]]
  mixer: 
    backend: 'pulay'
    beta: 0.05
    method: 'sum'
    nmaxold: 5
    weight: 100
  mode: 
    name: 'pw'
    ecut: 800.0
    qspiral: array([0.05426357, 0.05426357, 0.        ])
  parallel: 
    kpt: None
    domain: 1
    band: 1
    order: 'kdb'
    stridebands: False
    augment_grids: False
    sl_auto: False
    sl_default: None
    sl_diagonalize: None
    sl_inverse_cholesky: None
    sl_lcao: None
    sl_lrtddft: None
    use_elpa: False
    elpasolver: '2stage'
    buffer_size: None
    gpu: False
  symmetry: 
    point_group: False
    time_reversal: False
  xc: 
    name: 'LDA'

#                        
#                        
#                        
#                        
#              I         
#                        
#                        
#        Mn              
#          I             
#                        
#                        
#                        
#                        
#                        

atoms: [  # symbols, positions [Ang] and initial magnetic moments
  [ Mn, [   0.000000,    0.000000,    7.649535], [ 4.408,  0.000,  0.000]], # 0
  [  I, [   2.082858,    1.202539,    9.299069], [ 0.080,  0.000,  0.000]], # 1
  [  I, [   0.000000,    2.405077,    6.000000], [ 0.080,  0.000,  0.000]]] # 2

cell: [  # Ang
#     x            y            z
  [   4.165716,    0.000000,    0.000000],
  [  -2.082858,    3.607616,    0.000000],
  [   0.000000,    0.000000,   15.299069]]

periodic: [True      , True      , False     ]
lengths:  [  4.165716,   4.165716,  15.299069]  # Ang
angles:   [ 90.000000,  90.000000, 120.000000]

symmetry:
  number of symmetries: 1
  rotations: [
    [[ 1,  0,  0], [ 0,  1,  0], [ 0,  0,  1]]]

bz sampling:
  number of bz points: 196
  number of ibz points: 196
  monkhorst-pack size: [14, 14, 1]
  monkhorst-pack shift: [0.03571428571428571, 0.03571428571428571, 0.0]
  points and weights: [
    [[ -0.42857143,  -0.42857143,   0.00000000], 0.00510204],  # 0
    [[ -0.42857143,  -0.35714286,   0.00000000], 0.00510204],  # 1
    [[ -0.42857143,  -0.28571429,   0.00000000], 0.00510204],  # 2
    [[ -0.42857143,  -0.21428571,   0.00000000], 0.00510204],  # 3
    [[ -0.42857143,  -0.14285714,   0.00000000], 0.00510204],  # 4
    [[ -0.42857143,  -0.07142857,   0.00000000], 0.00510204],  # 5
    [[ -0.42857143,   0.00000000,   0.00000000], 0.00510204],  # 6
    [[ -0.42857143,   0.07142857,   0.00000000], 0.00510204],  # 7
    [[ -0.42857143,   0.14285714,   0.00000000], 0.00510204],  # 8
    [[ -0.42857143,   0.21428571,   0.00000000], 0.00510204],  # 9
    # ...
    [[  0.50000000,   0.50000000,   0.00000000], 0.00510204]]  # 195

plane wave coefficients: 11927
cutoff: 800.0 eV

spin-components: 4  # (non-collinear spins)
bands: 42
valence electrons: 29.0
spin-degeneracy: 1
dtype: complex128

memory:
    wave functions: 3_105_768_960  # bytes  (172_542_720 per core)

parallelization:
    kpt:    18
    domain: 1
    band:   1

density:
  components: 4
  grid points: [ 28  28 100]
  charge: 0.0  # |e|

potential:
  grid points: [ 28  28 100]

species:
  Mn:
    name: Manganese
    id: 0d715a8018be061a6e9ea6f2d364ac92
    Z: 25.0
    valence: 15
    core: 10
    charge: 0.0
    file: /zhome/86/d/1666/PAW/gpaw-setups-0.9.20000/Mn.LDA.gz
    compensation charges: {type: gauss,
                           rc: 0.38,
                           lmax: 2}
    cutoffs: {filter: 2.14,
              core: 0.86}
    valence states:
      #              energy  rcut
      - 3s(2.00)   -85.387   1.275
      - 4s(2.00)    -5.282   1.275
      - 3p(6.00)   -54.493   1.281
      - 4p(0.00)    -1.471   1.281
      - 3d(5.00)    -7.009   1.138
      -  d          20.203   1.138
  
    # Using partial waves for Mn as LCAO basis

  I:
    name: Iodine
    id: b559721c0c096a7b4c8fc0e0f4de5cf4
    Z: 53.0
    valence: 7
    core: 46
    charge: 0.0
    file: /zhome/86/d/1666/PAW/gpaw-setups-0.9.20000/I.LDA.gz
    compensation charges: {type: gauss,
                           rc: 0.37,
                           lmax: 2}
    cutoffs: {filter: 2.06,
              core: 2.90}
    valence states:
      #              energy  rcut
      - 5s(2.00)   -17.626   1.164
      - 5p(5.00)    -7.241   1.164
      -  s           9.585   1.164
      -  p          19.970   1.164
      -  d           0.000   1.164
  
    # Using partial waves for I as LCAO basis

Reference energy: -418222.442431  # eV

eigensolver:
  name: 'Davidson'
  niter: 2
  converge_bands: 'occupied'
Density mixing:
  Method: sum
  Backend: pulay
  Linear mixing parameter: 0.05
  old densities: 5
  Damping of long wavelength oscillations: 100
occupation numbers:
  Fermi-Dirac:
    width: 0.1000  # eV
  

poisson solver:
  ecut: 6400.0  # eV

xc functional:
  name: None

convergence criteria:
- Maximum [total energy] change in last 3 cyles: 0.0005 eV / valence electron
- Maximum integral of absolute [dens]ity change: 0.0001 electrons / valence electron
- Maximum integral of absolute [eigenst]ate change: 4e-08 eV^2 / valence electron
maximum number of iterations: 333

#      iter     time        total  log10-change:
#                          energy   eigst   dens
# iter:   1 07:15:39   -15.203472                  +4.6,+0.0,+0.0
# iter:   2 07:16:08   -15.185111   -0.74  -1.49   +4.7,-0.0,+0.0
# iter:   3 07:16:38   -15.109811   -1.15  -1.51   +4.8,+0.0,+0.0
# iter:   4 07:17:07   -15.120920   -1.48  -1.60   +4.8,+0.0,+0.0
# iter:   5 07:17:36   -15.159504   -1.74  -1.79   +4.9,+0.0,+0.0
# iter:   6 07:18:05   -15.126805   -1.95  -2.28   +5.0,+0.0,+0.0
# iter:   7 07:18:34   -15.125233   -2.26  -2.39   +5.0,+0.0,+0.0
# iter:   8 07:19:03   -15.148283   -2.35  -2.78   +4.9,+0.0,+0.0
# iter:   9 07:19:33   -15.132102   -2.80  -2.38   +4.9,+0.0,-0.0
# iter:  10 07:20:02   -15.124283   -2.72  -2.63   +4.9,+0.0,+0.0
# iter:  11 07:20:31   -15.124727c  -3.30  -3.49   +4.9,+0.0,-0.0
# iter:  12 07:21:00   -15.125317c  -3.41  -3.49   +4.9,+0.0,+0.0
# iter:  13 07:21:29   -15.125149c  -3.75  -3.16   +5.0,+0.0,-0.0
# iter:  14 07:21:58   -15.124775c  -3.83  -3.20   +5.0,+0.0,-0.0
# iter:  15 07:22:27   -15.124771c  -4.06  -3.62   +5.0,+0.0,+0.0
# iter:  16 07:22:56   -15.124764c  -4.21  -3.77   +5.0,+0.0,+0.0
# iter:  17 07:23:25   -15.124805c  -4.35  -4.08c  +5.0,+0.0,+0.0
# iter:  18 07:23:55   -15.124803c  -4.58  -3.95   +5.0,+0.0,+0.0
# iter:  19 07:24:24   -15.124785c  -4.74  -3.97   +5.0,+0.0,+0.0
# iter:  20 07:24:53   -15.124773c  -4.90  -4.12c  +5.0,+0.0,+0.0
# iter:  21 07:25:22   -15.124780c  -5.06  -4.30c  +5.0,+0.0,+0.0
# iter:  22 07:25:51   -15.124779c  -5.23  -4.41c  +5.0,+0.0,+0.0
# iter:  23 07:26:20   -15.124777c  -5.38  -4.49c  +5.0,+0.0,+0.0
# iter:  24 07:26:49   -15.124778c  -5.54  -4.86c  +5.0,+0.0,+0.0
# iter:  25 07:27:18   -15.124779c  -5.68  -4.85c  +5.0,+0.0,+0.0
# iter:  26 07:27:47   -15.124777c  -5.84  -4.92c  +5.0,+0.0,+0.0
# iter:  27 07:28:16   -15.124777c  -5.99  -5.17c  +5.0,+0.0,+0.0
# iter:  28 07:28:46   -15.124777c  -6.13  -5.31c  +5.0,+0.0,+0.0
# iter:  29 07:29:15   -15.124777c  -6.28  -5.51c  +5.0,+0.0,+0.0
# iter:  30 07:29:44   -15.124777c  -6.43  -5.76c  +5.0,+0.0,+0.0
# iter:  31 07:30:13   -15.124777c  -6.58  -5.77c  +5.0,+0.0,+0.0
# iter:  32 07:30:42   -15.124777c  -6.74  -5.80c  +5.0,+0.0,+0.0
# iter:  33 07:31:11   -15.124777c  -6.88  -5.90c  +5.0,+0.0,+0.0
# iter:  34 07:31:41   -15.124777c  -7.03  -5.89c  +5.0,+0.0,+0.0
# iter:  35 07:32:10   -15.124777c  -7.18  -5.90c  +5.0,+0.0,+0.0
# iter:  36 07:32:39   -15.124777c  -7.33  -6.08c  +5.0,+0.0,+0.0
# iter:  37 07:33:08   -15.124777c  -7.47c -6.10c  +5.0,+0.0,+0.0
scf_steps: 37
energies:  # eV
  coulomb:         -12.983315
  zero:              0.092913
  xc:              -17.241219
  external:          0.000000
  kinetic:          15.007894
  spinorbit:         0.000000
  entropy:          -0.002101
  total:           -15.125827
  extrapolated:    -15.124777

dipole moment: [-5.783958, -10.018109, -14.261713]  # |e|*Ang

total magnetic moment: [4.956687, 0.008257, 0.000000]

local magnetic moments: [
  [ 4.357939, -0.000260,  0.000000],  # Mn 0
  [ 0.076396, -0.027111,  0.000000],  # I  1
  [ 0.076396, -0.027111,  0.000000]]  # I  2


Fermi level: -1.257 eV

kpt = [-0.429, -0.429, 0.000], weight = 0.005:
  Band      eig [eV]   occ [0-1]
     0       -82.217       1.000
   ...
    21        -3.968       1.000
    22        -3.944       1.000
    23        -3.862       1.000
    24        -3.691       1.000
    25        -3.686       1.000
    26        -3.594       1.000
    27        -2.145       1.000
    28        -2.085       1.000
    29        -0.556       0.001
    30        -0.169       0.000
    31        -0.157       0.000
    32         0.459       0.000
    33         0.631       0.000
    34         1.335       0.000
    35         2.269       0.000
    36         3.185       0.000
   ...
    41         4.921       0.000

kpt = [-0.429, -0.357, 0.000], weight = 0.005:
  Band      eig [eV]   occ [0-1]
     0       -82.217       1.000
   ...
    21        -4.105       1.000
    22        -3.995       1.000
    23        -3.821       1.000
    24        -3.726       1.000
    25        -3.603       1.000
    26        -3.561       1.000
    27        -2.295       1.000
    28        -2.123       1.000
    29        -0.419       0.000
    30        -0.185       0.000
    31        -0.153       0.000
    32         0.393       0.000
    33         0.575       0.000
    34         1.601       0.000
    35         2.481       0.000
    36         3.653       0.000
   ...
    41         4.719       0.000

kpt = [-0.429, -0.286, 0.000], weight = 0.005:
  Band      eig [eV]   occ [0-1]
     0       -82.217       1.000
   ...
    21        -4.207       1.000
    22        -4.006       1.000
    23        -3.794       1.000
    24        -3.760       1.000
    25        -3.571       1.000
    26        -3.536       1.000
    27        -2.367       1.000
    28        -2.137       1.000
    29        -0.347       0.000
    30        -0.199       0.000
    31        -0.156       0.000
    32         0.365       0.000
    33         0.549       0.000
    34         1.747       0.000
    35         2.594       0.000
    36         3.738       0.000
   ...
    41         5.171       0.000
(only showing first 3 out of 196 k-points)

Gap: 0.917 eV
Transition (v -> c):
  (s=0, k=90, n=28, [0.00, 0.00, 0.00]) -> (s=0, k=188, n=29, [0.50, 0.00, 0.00])
# Writing to Band_Conv/gsq-93.gpw (mode='')

---

timing:  # [seconds]
  Total: 1095.540  # ━━━━━━━━━━━━━━━━━━━━━━━━━━━━━━━━━━━━━━━━━━━━━━━━━━━━━━━━
  Init:    18.976  # ━
  SCF:   1076.222  # ━━━━━━━━━━━━━━━━━━━━━━━━━━━━━━━━━━━━━━━━━━━━━━━━━━━━━━━

Max RSS: 2767.918  # MiB
