#  __  _  _
# | _ |_)|_||  |
# |__||  | ||/\| - 24.1.0

User:   s194113@n-62-29-25
Date:   Thu May  2 18:43:00 2024
Arch:   x86_64
Pid:    9729
CWD:    /work3/s194113/10302/10302_NM/MnI2
Python: 3.8.5
gpaw:   /zhome/87/8/147075/venv-name/gpaw/gpaw (10808453a8)
_gpaw:  /zhome/87/8/147075/venv-name/gpaw/
        _gpaw.cpython-38-x86_64-linux-gnu.so (10808453a8)
ase:    /zhome/87/8/147075/venv-name/ase/ase (version 3.23.0b1-c36115a2db)
numpy:  /zhome/87/8/147075/venv-name/lib/python3.8/site-packages/numpy (version 1.24.4)
scipy:  /zhome/87/8/147075/venv-name/lib/python3.8/site-packages/scipy (version 1.10.1)
libxc:  4.3.4
units:  Angstrom and eV
cores: 12
OpenMP: False
OMP_NUM_THREADS: 1

---
input parameters:
  kpts: 
    density: 8.0
    gamma: True
  magmoms: [[4.4079912, 0, 0], [0.08032672, 0, 0], [0.08032672, 0, 0]]
  mixer: 
    backend: 'pulay'
    beta: 0.05
    method: 'sum'
    nmaxold: 5
    weight: 100
  mode: 
    name: 'pw'
    ecut: 800.0
    qspiral: array([0.33333333, 0.33333333, 0.        ])
  parallel: 
    kpt: None
    domain: 1
    band: 1
    order: 'kdb'
    stridebands: False
    augment_grids: False
    sl_auto: False
    sl_default: None
    sl_diagonalize: None
    sl_inverse_cholesky: None
    sl_lcao: None
    sl_lrtddft: None
    use_elpa: False
    elpasolver: '2stage'
    buffer_size: None
    gpu: False
  symmetry: 
    point_group: False
    time_reversal: False
  xc: 
    name: 'LDA'

#                        
#                        
#                        
#                        
#              I         
#                        
#                        
#        Mn              
#          I             
#                        
#                        
#                        
#                        
#                        

atoms: [  # symbols, positions [Ang] and initial magnetic moments
  [ Mn, [   0.000000,    0.000000,    7.649535], [ 4.408,  0.000,  0.000]], # 0
  [  I, [   2.082858,    1.202539,    9.299069], [ 0.080,  0.000,  0.000]], # 1
  [  I, [   0.000000,    2.405077,    6.000000], [ 0.080,  0.000,  0.000]]] # 2

cell: [  # Ang
#     x            y            z
  [   4.165716,    0.000000,    0.000000],
  [  -2.082858,    3.607616,    0.000000],
  [   0.000000,    0.000000,   15.299069]]

periodic: [True      , True      , False     ]
lengths:  [  4.165716,   4.165716,  15.299069]  # Ang
angles:   [ 90.000000,  90.000000, 120.000000]

symmetry:
  number of symmetries: 1
  rotations: [
    [[ 1,  0,  0], [ 0,  1,  0], [ 0,  0,  1]]]

bz sampling:
  number of bz points: 196
  number of ibz points: 196
  monkhorst-pack size: [14, 14, 1]
  monkhorst-pack shift: [0.03571428571428571, 0.03571428571428571, 0.0]
  points and weights: [
    [[ -0.42857143,  -0.42857143,   0.00000000], 0.00510204],  # 0
    [[ -0.42857143,  -0.35714286,   0.00000000], 0.00510204],  # 1
    [[ -0.42857143,  -0.28571429,   0.00000000], 0.00510204],  # 2
    [[ -0.42857143,  -0.21428571,   0.00000000], 0.00510204],  # 3
    [[ -0.42857143,  -0.14285714,   0.00000000], 0.00510204],  # 4
    [[ -0.42857143,  -0.07142857,   0.00000000], 0.00510204],  # 5
    [[ -0.42857143,   0.00000000,   0.00000000], 0.00510204],  # 6
    [[ -0.42857143,   0.07142857,   0.00000000], 0.00510204],  # 7
    [[ -0.42857143,   0.14285714,   0.00000000], 0.00510204],  # 8
    [[ -0.42857143,   0.21428571,   0.00000000], 0.00510204],  # 9
    # ...
    [[  0.50000000,   0.50000000,   0.00000000], 0.00510204]]  # 195

plane wave coefficients: 11927
cutoff: 800.0 eV

spin-components: 4  # (non-collinear spins)
bands: 42
valence electrons: 29.0
spin-degeneracy: 1
dtype: complex128

memory:
    wave functions: 3_105_768_960  # bytes  (258_814_080 per core)

parallelization:
    kpt:    12
    domain: 1
    band:   1

density:
  components: 4
  grid points: [ 28  28 100]
  charge: 0.0  # |e|

potential:
  grid points: [ 28  28 100]

species:
  Mn:
    name: Manganese
    id: 0d715a8018be061a6e9ea6f2d364ac92
    Z: 25.0
    valence: 15
    core: 10
    charge: 0.0
    file: /zhome/86/d/1666/PAW/gpaw-setups-0.9.20000/Mn.LDA.gz
    compensation charges: {type: gauss,
                           rc: 0.38,
                           lmax: 2}
    cutoffs: {filter: 2.14,
              core: 0.86}
    valence states:
      #              energy  rcut
      - 3s(2.00)   -85.387   1.275
      - 4s(2.00)    -5.282   1.275
      - 3p(6.00)   -54.493   1.281
      - 4p(0.00)    -1.471   1.281
      - 3d(5.00)    -7.009   1.138
      -  d          20.203   1.138
  
    # Using partial waves for Mn as LCAO basis

  I:
    name: Iodine
    id: b559721c0c096a7b4c8fc0e0f4de5cf4
    Z: 53.0
    valence: 7
    core: 46
    charge: 0.0
    file: /zhome/86/d/1666/PAW/gpaw-setups-0.9.20000/I.LDA.gz
    compensation charges: {type: gauss,
                           rc: 0.37,
                           lmax: 2}
    cutoffs: {filter: 2.06,
              core: 2.90}
    valence states:
      #              energy  rcut
      - 5s(2.00)   -17.626   1.164
      - 5p(5.00)    -7.241   1.164
      -  s           9.585   1.164
      -  p          19.970   1.164
      -  d           0.000   1.164
  
    # Using partial waves for I as LCAO basis

Reference energy: -418222.442431  # eV

eigensolver:
  name: 'Davidson'
  niter: 2
  converge_bands: 'occupied'
Density mixing:
  Method: sum
  Backend: pulay
  Linear mixing parameter: 0.05
  old densities: 5
  Damping of long wavelength oscillations: 100
occupation numbers:
  Fermi-Dirac:
    width: 0.1000  # eV
  

poisson solver:
  ecut: 6400.0  # eV

xc functional:
  name: None

convergence criteria:
- Maximum [total energy] change in last 3 cyles: 0.0005 eV / valence electron
- Maximum integral of absolute [dens]ity change: 0.0001 electrons / valence electron
- Maximum integral of absolute [eigenst]ate change: 4e-08 eV^2 / valence electron
maximum number of iterations: 333

#      iter     time        total  log10-change:
#                          energy   eigst   dens
# iter:   1 18:44:08   -14.600565                  +4.6,+0.0,+0.0
# iter:   2 18:44:52   -15.133167   -0.04  -1.49   +4.1,-0.0,+0.0
# iter:   3 18:45:36   -15.137445   -0.67  -1.52   +4.0,-0.0,+0.0
# iter:   4 18:46:19   -15.158154   -0.99  -1.56   +4.1,-0.0,-0.0
# iter:   5 18:47:02   -15.259777   -1.28  -1.75   +4.3,-0.0,-0.0
# iter:   6 18:47:45   -15.156924   -1.54  -2.14   +4.4,-0.0,-0.0
# iter:   7 18:48:28   -15.146227   -1.70  -2.31   +4.3,-0.0,-0.0
# iter:   8 18:49:11   -15.142129   -2.09  -2.26   +4.3,+0.0,-0.0
# iter:   9 18:49:54   -15.146323c  -2.29  -2.95   +4.3,+0.0,-0.0
# iter:  10 18:50:37   -15.142296c  -2.49  -2.79   +4.3,+0.0,-0.0
# iter:  11 18:51:20   -15.142486c  -2.75  -3.23   +4.3,+0.0,-0.0
# iter:  12 18:52:03   -15.142637c  -2.93  -3.35   +4.3,+0.0,-0.0
# iter:  13 18:52:46   -15.142623c  -3.11  -3.39   +4.3,+0.0,-0.0
# iter:  14 18:53:29   -15.142668c  -3.29  -3.64   +4.3,+0.0,-0.0
# iter:  15 18:54:12   -15.142705c  -3.47  -3.75   +4.3,+0.0,-0.0
# iter:  16 18:54:55   -15.142688c  -3.64  -3.72   +4.3,+0.0,-0.0
# iter:  17 18:55:38   -15.142675c  -3.80  -3.78   +4.3,+0.0,-0.0
# iter:  18 18:56:21   -15.142679c  -3.97  -3.98   +4.3,+0.0,-0.0
# iter:  19 18:57:04   -15.142681c  -4.13  -4.02c  +4.3,+0.0,-0.0
# iter:  20 18:57:47   -15.142684c  -4.28  -4.07c  +4.3,+0.0,-0.0
# iter:  21 18:58:30   -15.142718c  -4.41  -4.14c  +4.3,+0.0,-0.0
# iter:  22 18:59:13   -15.142697c  -4.58  -3.94   +4.3,+0.0,-0.0
# iter:  23 18:59:56   -15.142692c  -4.73  -4.10c  +4.3,+0.0,-0.0
# iter:  24 19:00:40   -15.142691c  -4.87  -4.17c  +4.3,+0.0,-0.0
# iter:  25 19:01:23   -15.142691c  -5.01  -4.20c  +4.3,-0.0,-0.0
# iter:  26 19:02:06   -15.142687c  -5.13  -4.47c  +4.3,-0.0,-0.0
# iter:  27 19:02:49   -15.142686c  -5.28  -4.98c  +4.3,+0.0,-0.0
# iter:  28 19:03:32   -15.142687c  -5.41  -5.04c  +4.3,+0.0,-0.0
# iter:  29 19:04:15   -15.142687c  -5.54  -5.17c  +4.3,+0.0,-0.0
# iter:  30 19:04:59   -15.142687c  -5.67  -5.52c  +4.3,+0.0,-0.0
# iter:  31 19:05:42   -15.142687c  -5.80  -5.62c  +4.3,+0.0,-0.0
# iter:  32 19:06:25   -15.142687c  -5.92  -5.72c  +4.3,+0.0,-0.0
# iter:  33 19:07:09   -15.142687c  -6.04  -5.78c  +4.3,+0.0,-0.0
# iter:  34 19:07:52   -15.142687c  -6.16  -5.81c  +4.3,+0.0,-0.0
# iter:  35 19:08:35   -15.142687c  -6.28  -5.96c  +4.3,+0.0,-0.0
# iter:  36 19:09:18   -15.142687c  -6.40  -6.12c  +4.3,+0.0,+0.0
# iter:  37 19:10:02   -15.142687c  -6.52  -6.34c  +4.3,+0.0,-0.0
# iter:  38 19:10:44   -15.142687c  -6.65  -6.42c  +4.3,+0.0,-0.0
# iter:  39 19:11:28   -15.142687c  -6.78  -6.50c  +4.3,+0.0,+0.0
# iter:  40 19:12:11   -15.142687c  -6.89  -6.57c  +4.3,+0.0,+0.0
# iter:  41 19:12:54   -15.142687c  -7.00  -6.56c  +4.3,+0.0,+0.0
# iter:  42 19:13:37   -15.142687c  -7.12  -6.54c  +4.3,+0.0,-0.0
# iter:  43 19:14:20   -15.142687c  -7.23  -6.49c  +4.3,+0.0,-0.0
# iter:  44 19:15:04   -15.142687c  -7.34  -6.58c  +4.3,+0.0,-0.0
# iter:  45 19:15:47   -15.142687c  -7.45c -6.53c  +4.3,+0.0,+0.0
scf_steps: 45
energies:  # eV
  coulomb:         -12.446631
  zero:              0.094446
  xc:              -17.137223
  external:          0.000000
  kinetic:          14.347179
  spinorbit:         0.000000
  entropy:          -0.000917
  total:           -15.143145
  extrapolated:    -15.142687

dipole moment: [-4.813064, -8.336471, -9.098164]  # |e|*Ang

total magnetic moment: [4.289405, 0.000009, 0.000000]

local magnetic moments: [
  [ 4.322230,  0.000009, -0.000000],  # Mn 0
  [ 0.000001,  0.000000, -0.000000],  # I  1
  [ 0.000000,  0.000000,  0.000000]]  # I  2


Fermi level: -1.215 eV

kpt = [-0.429, -0.429, 0.000], weight = 0.005:
  Band      eig [eV]   occ [0-1]
     0       -82.167       1.000
   ...
    21        -4.137       1.000
    22        -4.096       1.000
    23        -3.724       1.000
    24        -3.688       1.000
    25        -3.550       1.000
    26        -3.468       1.000
    27        -2.265       1.000
    28        -2.143       1.000
    29        -0.288       0.000
    30        -0.242       0.000
    31        -0.157       0.000
    32         0.429       0.000
    33         0.487       0.000
    34         1.758       0.000
    35         2.505       0.000
    36         3.709       0.000
   ...
    41         5.409       0.000

kpt = [-0.429, -0.357, 0.000], weight = 0.005:
  Band      eig [eV]   occ [0-1]
     0       -82.167       1.000
   ...
    21        -3.984       1.000
    22        -3.942       1.000
    23        -3.742       1.000
    24        -3.659       1.000
    25        -3.507       1.000
    26        -3.350       1.000
    27        -2.272       1.000
    28        -2.044       1.000
    29        -0.357       0.000
    30        -0.255       0.000
    31        -0.169       0.000
    32         0.427       0.000
    33         0.523       0.000
    34         1.608       0.000
    35         2.405       0.000
    36         3.405       0.000
   ...
    41         4.721       0.000

kpt = [-0.429, -0.286, 0.000], weight = 0.005:
  Band      eig [eV]   occ [0-1]
     0       -82.167       1.000
   ...
    21        -3.909       1.000
    22        -3.762       1.000
    23        -3.707       1.000
    24        -3.541       1.000
    25        -3.438       1.000
    26        -3.254       1.000
    27        -2.231       1.000
    28        -1.958       0.999
    29        -0.464       0.001
    30        -0.264       0.000
    31        -0.164       0.000
    32         0.437       0.000
    33         0.541       0.000
    34         1.469       0.000
    35         2.280       0.000
    36         3.053       0.000
   ...
    41         4.579       0.000
(only showing first 3 out of 196 k-points)

Gap: 1.420 eV
Transition (v -> c):
  (s=0, k=107, n=28, [0.07, 0.21, 0.00]) -> (s=0, k=158, n=29, [0.36, -0.14, 0.00])
# Writing to Band_Conv/gsq-57.gpw (mode='')

