#  __  _  _
# | _ |_)|_||  |
# |__||  | ||/\| - 24.1.0

User:   s194113@n-62-29-34
Date:   Mon May  6 19:31:17 2024
Arch:   x86_64
Pid:    15878
CWD:    /work3/s194113/10302/10302_NM/MnI2
Python: 3.8.5
gpaw:   /zhome/87/8/147075/venv-name/gpaw/gpaw (10808453a8)
_gpaw:  /zhome/87/8/147075/venv-name/gpaw/
        _gpaw.cpython-38-x86_64-linux-gnu.so (10808453a8)
ase:    /zhome/87/8/147075/venv-name/ase/ase (version 3.23.0b1-c36115a2db)
numpy:  /zhome/87/8/147075/venv-name/lib/python3.8/site-packages/numpy (version 1.24.4)
scipy:  /zhome/87/8/147075/venv-name/lib/python3.8/site-packages/scipy (version 1.10.1)
libxc:  4.3.4
units:  Angstrom and eV
cores: 18
OpenMP: False
OMP_NUM_THREADS: 1

---
input parameters:
  kpts: 
    density: 8.0
    gamma: True
  magmoms: [[4.4079912, 0, 0], [0.08032672, 0, 0], [0.08032672, 0, 0]]
  mixer: 
    backend: 'pulay'
    beta: 0.05
    method: 'sum'
    nmaxold: 5
    weight: 100
  mode: 
    name: 'pw'
    ecut: 800.0
    qspiral: array([0.3255814, 0.3255814, 0.       ])
  parallel: 
    kpt: None
    domain: 1
    band: 1
    order: 'kdb'
    stridebands: False
    augment_grids: False
    sl_auto: False
    sl_default: None
    sl_diagonalize: None
    sl_inverse_cholesky: None
    sl_lcao: None
    sl_lrtddft: None
    use_elpa: False
    elpasolver: '2stage'
    buffer_size: None
    gpu: False
  symmetry: 
    point_group: False
    time_reversal: False
  xc: 
    name: 'LDA'

#                        
#                        
#                        
#                        
#              I         
#                        
#                        
#        Mn              
#          I             
#                        
#                        
#                        
#                        
#                        

atoms: [  # symbols, positions [Ang] and initial magnetic moments
  [ Mn, [   0.000000,    0.000000,    7.649535], [ 4.408,  0.000,  0.000]], # 0
  [  I, [   2.082858,    1.202539,    9.299069], [ 0.080,  0.000,  0.000]], # 1
  [  I, [   0.000000,    2.405077,    6.000000], [ 0.080,  0.000,  0.000]]] # 2

cell: [  # Ang
#     x            y            z
  [   4.165716,    0.000000,    0.000000],
  [  -2.082858,    3.607616,    0.000000],
  [   0.000000,    0.000000,   15.299069]]

periodic: [True      , True      , False     ]
lengths:  [  4.165716,   4.165716,  15.299069]  # Ang
angles:   [ 90.000000,  90.000000, 120.000000]

symmetry:
  number of symmetries: 1
  rotations: [
    [[ 1,  0,  0], [ 0,  1,  0], [ 0,  0,  1]]]

bz sampling:
  number of bz points: 196
  number of ibz points: 196
  monkhorst-pack size: [14, 14, 1]
  monkhorst-pack shift: [0.03571428571428571, 0.03571428571428571, 0.0]
  points and weights: [
    [[ -0.42857143,  -0.42857143,   0.00000000], 0.00510204],  # 0
    [[ -0.42857143,  -0.35714286,   0.00000000], 0.00510204],  # 1
    [[ -0.42857143,  -0.28571429,   0.00000000], 0.00510204],  # 2
    [[ -0.42857143,  -0.21428571,   0.00000000], 0.00510204],  # 3
    [[ -0.42857143,  -0.14285714,   0.00000000], 0.00510204],  # 4
    [[ -0.42857143,  -0.07142857,   0.00000000], 0.00510204],  # 5
    [[ -0.42857143,   0.00000000,   0.00000000], 0.00510204],  # 6
    [[ -0.42857143,   0.07142857,   0.00000000], 0.00510204],  # 7
    [[ -0.42857143,   0.14285714,   0.00000000], 0.00510204],  # 8
    [[ -0.42857143,   0.21428571,   0.00000000], 0.00510204],  # 9
    # ...
    [[  0.50000000,   0.50000000,   0.00000000], 0.00510204]]  # 195

plane wave coefficients: 11927
cutoff: 800.0 eV

spin-components: 4  # (non-collinear spins)
bands: 42
valence electrons: 29.0
spin-degeneracy: 1
dtype: complex128

memory:
    wave functions: 3_105_768_960  # bytes  (172_542_720 per core)

parallelization:
    kpt:    18
    domain: 1
    band:   1

density:
  components: 4
  grid points: [ 28  28 100]
  charge: 0.0  # |e|

potential:
  grid points: [ 28  28 100]

species:
  Mn:
    name: Manganese
    id: 0d715a8018be061a6e9ea6f2d364ac92
    Z: 25.0
    valence: 15
    core: 10
    charge: 0.0
    file: /zhome/86/d/1666/PAW/gpaw-setups-0.9.20000/Mn.LDA.gz
    compensation charges: {type: gauss,
                           rc: 0.38,
                           lmax: 2}
    cutoffs: {filter: 2.14,
              core: 0.86}
    valence states:
      #              energy  rcut
      - 3s(2.00)   -85.387   1.275
      - 4s(2.00)    -5.282   1.275
      - 3p(6.00)   -54.493   1.281
      - 4p(0.00)    -1.471   1.281
      - 3d(5.00)    -7.009   1.138
      -  d          20.203   1.138
  
    # Using partial waves for Mn as LCAO basis

  I:
    name: Iodine
    id: b559721c0c096a7b4c8fc0e0f4de5cf4
    Z: 53.0
    valence: 7
    core: 46
    charge: 0.0
    file: /zhome/86/d/1666/PAW/gpaw-setups-0.9.20000/I.LDA.gz
    compensation charges: {type: gauss,
                           rc: 0.37,
                           lmax: 2}
    cutoffs: {filter: 2.06,
              core: 2.90}
    valence states:
      #              energy  rcut
      - 5s(2.00)   -17.626   1.164
      - 5p(5.00)    -7.241   1.164
      -  s           9.585   1.164
      -  p          19.970   1.164
      -  d           0.000   1.164
  
    # Using partial waves for I as LCAO basis

Reference energy: -418222.442431  # eV

eigensolver:
  name: 'Davidson'
  niter: 2
  converge_bands: 'occupied'
Density mixing:
  Method: sum
  Backend: pulay
  Linear mixing parameter: 0.05
  old densities: 5
  Damping of long wavelength oscillations: 100
occupation numbers:
  Fermi-Dirac:
    width: 0.1000  # eV
  

poisson solver:
  ecut: 6400.0  # eV

xc functional:
  name: None

convergence criteria:
- Maximum [total energy] change in last 3 cyles: 0.0005 eV / valence electron
- Maximum integral of absolute [dens]ity change: 0.0001 electrons / valence electron
- Maximum integral of absolute [eigenst]ate change: 4e-08 eV^2 / valence electron
maximum number of iterations: 333

#      iter     time        total  log10-change:
#                          energy   eigst   dens
# iter:   1 19:32:04   -14.636467                  +4.6,+0.0,+0.0
# iter:   2 19:32:34   -15.137928   -0.06  -1.49   +4.1,-0.0,-0.0
# iter:   3 19:33:03   -15.138095   -0.69  -1.52   +4.0,-0.0,-0.0
# iter:   4 19:33:33   -15.158238   -1.00  -1.56   +4.1,-0.0,-0.0
# iter:   5 19:34:03   -15.257148   -1.29  -1.75   +4.3,-0.0,-0.0
# iter:   6 19:34:32   -15.157833   -1.56  -2.14   +4.4,-0.0,-0.0
# iter:   7 19:35:02   -15.148649   -1.68  -2.30   +4.3,+0.0,-0.0
# iter:   8 19:35:31   -15.142109   -2.10  -2.23   +4.3,+0.0,-0.0
# iter:   9 19:36:00   -15.143937c  -2.34  -2.95   +4.3,+0.0,-0.0
# iter:  10 19:36:30   -15.142491c  -2.55  -2.96   +4.3,+0.0,-0.0
# iter:  11 19:36:59   -15.142489c  -2.76  -3.12   +4.3,+0.0,-0.0
# iter:  12 19:37:29   -15.142547c  -2.95  -3.25   +4.3,+0.0,-0.0
# iter:  13 19:37:58   -15.142767c  -3.11  -3.45   +4.3,+0.0,-0.0
# iter:  14 19:38:27   -15.142741c  -3.31  -3.50   +4.3,+0.0,-0.0
# iter:  15 19:38:56   -15.142659c  -3.49  -3.53   +4.3,+0.0,-0.0
# iter:  16 19:39:26   -15.142716c  -3.67  -3.65   +4.3,+0.0,-0.0
# iter:  17 19:39:55   -15.142670c  -3.78  -3.55   +4.3,+0.0,-0.0
# iter:  18 19:40:24   -15.142664c  -3.99  -3.77   +4.3,+0.0,-0.0
# iter:  19 19:40:53   -15.142670c  -4.15  -3.87   +4.3,+0.0,-0.0
# iter:  20 19:41:22   -15.142670c  -4.30  -3.92   +4.3,+0.0,-0.0
# iter:  21 19:41:51   -15.142672c  -4.45  -3.94   +4.3,+0.0,-0.0
# iter:  22 19:42:21   -15.142672c  -4.61  -4.08c  +4.3,+0.0,-0.0
# iter:  23 19:42:50   -15.142672c  -4.76  -4.12c  +4.3,+0.0,-0.0
# iter:  24 19:43:19   -15.142673c  -4.90  -4.14c  +4.3,+0.0,-0.0
# iter:  25 19:43:48   -15.142675c  -5.04  -4.16c  +4.3,+0.0,-0.0
# iter:  26 19:44:17   -15.142674c  -5.18  -4.12c  +4.3,+0.0,-0.0
# iter:  27 19:44:46   -15.142675c  -5.27  -4.15c  +4.3,+0.0,-0.0
# iter:  28 19:45:15   -15.142673c  -5.46  -4.32c  +4.3,+0.0,-0.0
# iter:  29 19:45:44   -15.142679c  -5.51  -4.41c  +4.3,+0.0,-0.0
# iter:  30 19:46:13   -15.142675c  -5.70  -4.37c  +4.3,+0.0,-0.0
# iter:  31 19:46:43   -15.142674c  -5.84  -4.94c  +4.3,+0.0,-0.0
# iter:  32 19:47:12   -15.142674c  -5.97  -5.02c  +4.3,+0.0,-0.0
# iter:  33 19:47:41   -15.142674c  -6.09  -5.08c  +4.3,+0.0,-0.0
# iter:  34 19:48:10   -15.142674c  -6.22  -5.13c  +4.3,+0.0,-0.0
# iter:  35 19:48:39   -15.142674c  -6.34  -5.17c  +4.3,+0.0,-0.0
# iter:  36 19:49:08   -15.142674c  -6.46  -5.23c  +4.3,+0.0,-0.0
# iter:  37 19:49:37   -15.142674c  -6.59  -5.29c  +4.3,+0.0,-0.0
# iter:  38 19:50:06   -15.142674c  -6.70  -5.31c  +4.3,+0.0,-0.0
# iter:  39 19:50:36   -15.142674c  -6.82  -5.39c  +4.3,+0.0,-0.0
# iter:  40 19:51:05   -15.142674c  -6.94  -5.38c  +4.3,+0.0,-0.0
# iter:  41 19:51:34   -15.142674c  -7.05  -5.46c  +4.3,+0.0,-0.0
# iter:  42 19:52:04   -15.142674c  -7.17  -5.55c  +4.3,+0.0,-0.0
# iter:  43 19:52:33   -15.142674c  -7.28  -5.63c  +4.3,+0.0,-0.0
# iter:  44 19:53:02   -15.142674c  -7.39  -5.74c  +4.3,+0.0,-0.0
# iter:  45 19:53:30   -15.142674c  -7.50c -5.74c  +4.3,+0.0,-0.0
scf_steps: 45
energies:  # eV
  coulomb:         -12.443164
  zero:              0.094364
  xc:              -17.136952
  external:          0.000000
  kinetic:          14.343536
  spinorbit:         0.000000
  entropy:          -0.000918
  total:           -15.143133
  extrapolated:    -15.142674

dipole moment: [-4.836990, -8.377911, -9.220346]  # |e|*Ang

total magnetic moment: [4.305644, 0.000549, -0.000000]

local magnetic moments: [
  [ 4.322223, -0.000007, -0.000000],  # Mn 0
  [-0.000898, -0.001744,  0.000000],  # I  1
  [-0.000898, -0.001744, -0.000000]]  # I  2


Fermi level: -1.215 eV

kpt = [-0.429, -0.429, 0.000], weight = 0.005:
  Band      eig [eV]   occ [0-1]
     0       -82.167       1.000
   ...
    21        -4.131       1.000
    22        -4.094       1.000
    23        -3.735       1.000
    24        -3.683       1.000
    25        -3.548       1.000
    26        -3.473       1.000
    27        -2.263       1.000
    28        -2.140       1.000
    29        -0.292       0.000
    30        -0.244       0.000
    31        -0.154       0.000
    32         0.434       0.000
    33         0.487       0.000
    34         1.739       0.000
    35         2.491       0.000
    36         3.708       0.000
   ...
    41         5.438       0.000

kpt = [-0.429, -0.357, 0.000], weight = 0.005:
  Band      eig [eV]   occ [0-1]
     0       -82.167       1.000
   ...
    21        -3.985       1.000
    22        -3.946       1.000
    23        -3.744       1.000
    24        -3.666       1.000
    25        -3.508       1.000
    26        -3.356       1.000
    27        -2.276       1.000
    28        -2.035       1.000
    29        -0.365       0.000
    30        -0.254       0.000
    31        -0.166       0.000
    32         0.430       0.000
    33         0.529       0.000
    34         1.582       0.000
    35         2.393       0.000
    36         3.355       0.000
   ...
    41         4.759       0.000

kpt = [-0.429, -0.286, 0.000], weight = 0.005:
  Band      eig [eV]   occ [0-1]
     0       -82.167       1.000
   ...
    21        -3.918       1.000
    22        -3.762       1.000
    23        -3.711       1.000
    24        -3.553       1.000
    25        -3.442       1.000
    26        -3.262       1.000
    27        -2.236       1.000
    28        -1.952       0.999
    29        -0.467       0.001
    30        -0.264       0.000
    31        -0.163       0.000
    32         0.440       0.000
    33         0.547       0.000
    34         1.454       0.000
    35         2.267       0.000
    36         3.026       0.000
   ...
    41         4.593       0.000
(only showing first 3 out of 196 k-points)

Gap: 1.412 eV
Transition (v -> c):
  (s=0, k=107, n=28, [0.07, 0.21, 0.00]) -> (s=0, k=22, n=29, [-0.36, 0.14, 0.00])
# Writing to Band_Conv/gsq-58.gpw (mode='')

---

timing:  # [seconds]
  Total: 1333.714  # ━━━━━━━━━━━━━━━━━━━━━━━━━━━━━━━━━━━━━━━━━━━━━━━━━━━━━━━━
  Init:    18.931  # ━
  SCF:   1314.107  # ━━━━━━━━━━━━━━━━━━━━━━━━━━━━━━━━━━━━━━━━━━━━━━━━━━━━━━━

Max RSS: 2320.148  # MiB
