#  __  _  _
# | _ |_)|_||  |
# |__||  | ||/\| - 24.1.0

User:   s194113@n-62-29-25
Date:   Thu May  2 05:48:15 2024
Arch:   x86_64
Pid:    9729
CWD:    /work3/s194113/10302/10302_NM/MnI2
Python: 3.8.5
gpaw:   /zhome/87/8/147075/venv-name/gpaw/gpaw (10808453a8)
_gpaw:  /zhome/87/8/147075/venv-name/gpaw/
        _gpaw.cpython-38-x86_64-linux-gnu.so (10808453a8)
ase:    /zhome/87/8/147075/venv-name/ase/ase (version 3.23.0b1-c36115a2db)
numpy:  /zhome/87/8/147075/venv-name/lib/python3.8/site-packages/numpy (version 1.24.4)
scipy:  /zhome/87/8/147075/venv-name/lib/python3.8/site-packages/scipy (version 1.10.1)
libxc:  4.3.4
units:  Angstrom and eV
cores: 12
OpenMP: False
OMP_NUM_THREADS: 1

---
input parameters:
  kpts: 
    density: 8.0
    gamma: True
  magmoms: [[4.4079912, 0, 0], [0.08032672, 0, 0], [0.08032672, 0, 0]]
  mixer: 
    backend: 'pulay'
    beta: 0.05
    method: 'sum'
    nmaxold: 5
    weight: 100
  mode: 
    name: 'pw'
    ecut: 800.0
    qspiral: array([0.45833333, 0.        , 0.        ])
  parallel: 
    kpt: None
    domain: 1
    band: 1
    order: 'kdb'
    stridebands: False
    augment_grids: False
    sl_auto: False
    sl_default: None
    sl_diagonalize: None
    sl_inverse_cholesky: None
    sl_lcao: None
    sl_lrtddft: None
    use_elpa: False
    elpasolver: '2stage'
    buffer_size: None
    gpu: False
  symmetry: 
    point_group: False
    time_reversal: False
  xc: 
    name: 'LDA'

#                        
#                        
#                        
#                        
#              I         
#                        
#                        
#        Mn              
#          I             
#                        
#                        
#                        
#                        
#                        

atoms: [  # symbols, positions [Ang] and initial magnetic moments
  [ Mn, [   0.000000,    0.000000,    7.649535], [ 4.408,  0.000,  0.000]], # 0
  [  I, [   2.082858,    1.202539,    9.299069], [ 0.080,  0.000,  0.000]], # 1
  [  I, [   0.000000,    2.405077,    6.000000], [ 0.080,  0.000,  0.000]]] # 2

cell: [  # Ang
#     x            y            z
  [   4.165716,    0.000000,    0.000000],
  [  -2.082858,    3.607616,    0.000000],
  [   0.000000,    0.000000,   15.299069]]

periodic: [True      , True      , False     ]
lengths:  [  4.165716,   4.165716,  15.299069]  # Ang
angles:   [ 90.000000,  90.000000, 120.000000]

symmetry:
  number of symmetries: 1
  rotations: [
    [[ 1,  0,  0], [ 0,  1,  0], [ 0,  0,  1]]]

bz sampling:
  number of bz points: 196
  number of ibz points: 196
  monkhorst-pack size: [14, 14, 1]
  monkhorst-pack shift: [0.03571428571428571, 0.03571428571428571, 0.0]
  points and weights: [
    [[ -0.42857143,  -0.42857143,   0.00000000], 0.00510204],  # 0
    [[ -0.42857143,  -0.35714286,   0.00000000], 0.00510204],  # 1
    [[ -0.42857143,  -0.28571429,   0.00000000], 0.00510204],  # 2
    [[ -0.42857143,  -0.21428571,   0.00000000], 0.00510204],  # 3
    [[ -0.42857143,  -0.14285714,   0.00000000], 0.00510204],  # 4
    [[ -0.42857143,  -0.07142857,   0.00000000], 0.00510204],  # 5
    [[ -0.42857143,   0.00000000,   0.00000000], 0.00510204],  # 6
    [[ -0.42857143,   0.07142857,   0.00000000], 0.00510204],  # 7
    [[ -0.42857143,   0.14285714,   0.00000000], 0.00510204],  # 8
    [[ -0.42857143,   0.21428571,   0.00000000], 0.00510204],  # 9
    # ...
    [[  0.50000000,   0.50000000,   0.00000000], 0.00510204]]  # 195

plane wave coefficients: 11927
cutoff: 800.0 eV

spin-components: 4  # (non-collinear spins)
bands: 42
valence electrons: 29.0
spin-degeneracy: 1
dtype: complex128

memory:
    wave functions: 3_105_768_960  # bytes  (258_814_080 per core)

parallelization:
    kpt:    12
    domain: 1
    band:   1

density:
  components: 4
  grid points: [ 28  28 100]
  charge: 0.0  # |e|

potential:
  grid points: [ 28  28 100]

species:
  Mn:
    name: Manganese
    id: 0d715a8018be061a6e9ea6f2d364ac92
    Z: 25.0
    valence: 15
    core: 10
    charge: 0.0
    file: /zhome/86/d/1666/PAW/gpaw-setups-0.9.20000/Mn.LDA.gz
    compensation charges: {type: gauss,
                           rc: 0.38,
                           lmax: 2}
    cutoffs: {filter: 2.14,
              core: 0.86}
    valence states:
      #              energy  rcut
      - 3s(2.00)   -85.387   1.275
      - 4s(2.00)    -5.282   1.275
      - 3p(6.00)   -54.493   1.281
      - 4p(0.00)    -1.471   1.281
      - 3d(5.00)    -7.009   1.138
      -  d          20.203   1.138
  
    # Using partial waves for Mn as LCAO basis

  I:
    name: Iodine
    id: b559721c0c096a7b4c8fc0e0f4de5cf4
    Z: 53.0
    valence: 7
    core: 46
    charge: 0.0
    file: /zhome/86/d/1666/PAW/gpaw-setups-0.9.20000/I.LDA.gz
    compensation charges: {type: gauss,
                           rc: 0.37,
                           lmax: 2}
    cutoffs: {filter: 2.06,
              core: 2.90}
    valence states:
      #              energy  rcut
      - 5s(2.00)   -17.626   1.164
      - 5p(5.00)    -7.241   1.164
      -  s           9.585   1.164
      -  p          19.970   1.164
      -  d           0.000   1.164
  
    # Using partial waves for I as LCAO basis

Reference energy: -418222.442431  # eV

eigensolver:
  name: 'Davidson'
  niter: 2
  converge_bands: 'occupied'
Density mixing:
  Method: sum
  Backend: pulay
  Linear mixing parameter: 0.05
  old densities: 5
  Damping of long wavelength oscillations: 100
occupation numbers:
  Fermi-Dirac:
    width: 0.1000  # eV
  

poisson solver:
  ecut: 6400.0  # eV

xc functional:
  name: None

convergence criteria:
- Maximum [total energy] change in last 3 cyles: 0.0005 eV / valence electron
- Maximum integral of absolute [dens]ity change: 0.0001 electrons / valence electron
- Maximum integral of absolute [eigenst]ate change: 4e-08 eV^2 / valence electron
maximum number of iterations: 333

#      iter     time        total  log10-change:
#                          energy   eigst   dens
# iter:   1 05:49:24   -14.864890                  +4.6,+0.0,+0.0
# iter:   2 05:50:09   -15.162225   -0.22  -1.49   +4.2,-0.0,-0.0
# iter:   3 05:50:54   -15.139228   -0.83  -1.52   +4.2,-0.0,+0.0
# iter:   4 05:51:39   -15.152294   -1.10  -1.56   +4.3,-0.0,-0.0
# iter:   5 05:52:25   -15.235901   -1.40  -1.76   +4.5,+0.0,+0.0
# iter:   6 05:53:10   -15.158147   -1.69  -2.17   +4.5,+0.0,+0.0
# iter:   7 05:53:55   -15.163490   -1.61  -2.28   +4.5,+0.0,-0.0
# iter:   8 05:54:40   -15.138943   -2.19  -2.15   +4.4,+0.0,-0.0
# iter:   9 05:55:24   -15.138412   -2.47  -2.88   +4.4,+0.0,-0.0
# iter:  10 05:56:09   -15.140249c  -2.69  -2.99   +4.4,+0.0,-0.0
# iter:  11 05:56:53   -15.138479c  -2.88  -2.91   +4.4,+0.0,-0.0
# iter:  12 05:57:38   -15.138587c  -3.14  -3.47   +4.4,+0.0,-0.0
# iter:  13 05:58:22   -15.138654c  -3.32  -3.51   +4.4,+0.0,+0.0
# iter:  14 05:59:07   -15.138655c  -3.51  -3.49   +4.4,+0.0,-0.0
# iter:  15 05:59:52   -15.138648c  -3.68  -3.65   +4.4,+0.0,-0.0
# iter:  16 06:00:37   -15.138653c  -3.85  -3.98   +4.4,+0.0,-0.0
# iter:  17 06:01:21   -15.138658c  -4.03  -4.13c  +4.4,+0.0,-0.0
# iter:  18 06:02:06   -15.138666c  -4.19  -4.19c  +4.4,+0.0,-0.0
# iter:  19 06:02:51   -15.138666c  -4.36  -4.30c  +4.4,+0.0,-0.0
# iter:  20 06:03:36   -15.138664c  -4.51  -4.41c  +4.5,+0.0,-0.0
# iter:  21 06:04:20   -15.138667c  -4.66  -4.38c  +4.5,+0.0,-0.0
# iter:  22 06:05:05   -15.138667c  -4.82  -5.02c  +4.5,+0.0,-0.0
# iter:  23 06:05:51   -15.138667c  -4.96  -5.14c  +4.5,+0.0,-0.0
# iter:  24 06:06:36   -15.138667c  -5.11  -5.15c  +4.5,+0.0,-0.0
# iter:  25 06:07:21   -15.138667c  -5.25  -5.41c  +4.5,+0.0,-0.0
# iter:  26 06:08:06   -15.138667c  -5.40  -5.56c  +4.5,+0.0,-0.0
# iter:  27 06:08:51   -15.138667c  -5.54  -5.65c  +4.5,+0.0,-0.0
# iter:  28 06:09:36   -15.138667c  -5.68  -5.61c  +4.5,+0.0,-0.0
# iter:  29 06:10:20   -15.138667c  -5.81  -5.60c  +4.5,+0.0,-0.0
# iter:  30 06:11:05   -15.138667c  -5.95  -5.56c  +4.5,+0.0,-0.0
# iter:  31 06:11:49   -15.138667c  -6.09  -5.59c  +4.5,+0.0,-0.0
# iter:  32 06:12:34   -15.138667c  -6.23  -5.55c  +4.5,+0.0,-0.0
# iter:  33 06:13:18   -15.138667c  -6.36  -5.59c  +4.5,+0.0,-0.0
# iter:  34 06:14:03   -15.138667c  -6.50  -5.57c  +4.5,+0.0,-0.0
# iter:  35 06:14:47   -15.138667c  -6.62  -5.55c  +4.5,+0.0,-0.0
# iter:  36 06:15:32   -15.138667c  -6.75  -5.61c  +4.5,+0.0,-0.0
# iter:  37 06:16:16   -15.138667c  -6.87  -5.58c  +4.5,+0.0,-0.0
# iter:  38 06:17:00   -15.138668c  -7.00  -5.58c  +4.5,+0.0,-0.0
# iter:  39 06:17:45   -15.138667c  -7.14  -5.59c  +4.5,+0.0,-0.0
# iter:  40 06:18:30   -15.138667c  -7.26  -5.67c  +4.5,+0.0,-0.0
# iter:  41 06:19:14   -15.138668c  -7.38  -5.63c  +4.5,+0.0,-0.0
# iter:  42 06:19:59   -15.138668c  -7.50c -5.75c  +4.5,+0.0,-0.0
scf_steps: 42
energies:  # eV
  coulomb:         -12.539220
  zero:              0.094305
  xc:              -17.154461
  external:          0.000000
  kinetic:          14.461357
  spinorbit:         0.000000
  entropy:          -0.001298
  total:           -15.139316
  extrapolated:    -15.138668

dipole moment: [-4.773578, -8.964207, -10.119790]  # |e|*Ang

total magnetic moment: [4.450382, 0.002852, -0.000000]

local magnetic moments: [
  [ 4.328740, -0.000077, -0.000000],  # Mn 0
  [-0.022338, -0.012365, -0.000000],  # I  1
  [ 0.024778, -0.006163, -0.000000]]  # I  2


Fermi level: -1.212 eV

kpt = [-0.429, -0.429, 0.000], weight = 0.005:
  Band      eig [eV]   occ [0-1]
     0       -82.176       1.000
   ...
    21        -4.035       1.000
    22        -3.866       1.000
    23        -3.804       1.000
    24        -3.745       1.000
    25        -3.437       1.000
    26        -3.364       1.000
    27        -2.234       1.000
    28        -2.042       1.000
    29        -0.402       0.000
    30        -0.269       0.000
    31        -0.140       0.000
    32         0.422       0.000
    33         0.572       0.000
    34         1.552       0.000
    35         2.287       0.000
    36         3.292       0.000
   ...
    41         4.953       0.000

kpt = [-0.429, -0.357, 0.000], weight = 0.005:
  Band      eig [eV]   occ [0-1]
     0       -82.176       1.000
   ...
    21        -3.912       1.000
    22        -3.864       1.000
    23        -3.708       1.000
    24        -3.618       1.000
    25        -3.407       1.000
    26        -3.297       1.000
    27        -2.322       1.000
    28        -1.950       0.999
    29        -0.422       0.000
    30        -0.257       0.000
    31        -0.143       0.000
    32         0.398       0.000
    33         0.565       0.000
    34         1.562       0.000
    35         2.265       0.000
    36         3.095       0.000
   ...
    41         4.888       0.000

kpt = [-0.429, -0.286, 0.000], weight = 0.005:
  Band      eig [eV]   occ [0-1]
     0       -82.176       1.000
   ...
    21        -3.899       1.000
    22        -3.746       1.000
    23        -3.628       1.000
    24        -3.550       1.000
    25        -3.407       1.000
    26        -3.215       1.000
    27        -2.380       1.000
    28        -1.943       0.999
    29        -0.389       0.000
    30        -0.230       0.000
    31        -0.186       0.000
    32         0.328       0.000
    33         0.548       0.000
    34         1.766       0.000
    35         2.436       0.000
    36         3.215       0.000
   ...
    41         5.046       0.000
(only showing first 3 out of 196 k-points)

Gap: 1.122 eV
Transition (v -> c):
  (s=0, k=90, n=28, [0.00, 0.00, 0.00]) -> (s=0, k=188, n=29, [0.50, 0.00, 0.00])
# Writing to Band_Conv/gsq-33.gpw (mode='')

---

timing:  # [seconds]
  Total: 3851.614  # ━━━━━━━━━━━━━━━━━━━━━━━━━━━━━━━━━━━━━━━━━━━━━━━━━━━━━━━━
  Init:    27.535  # ╸
  SCF:   1876.258  # ━━━━━━━━━━━━━━━━━━━━━━━━━━━╸

Max RSS: 2477.074  # MiB
