#  __  _  _
# | _ |_)|_||  |
# |__||  | ||/\| - 24.1.0

User:   s194113@n-62-29-34
Date:   Tue May  7 03:26:47 2024
Arch:   x86_64
Pid:    15878
CWD:    /work3/s194113/10302/10302_NM/MnI2
Python: 3.8.5
gpaw:   /zhome/87/8/147075/venv-name/gpaw/gpaw (10808453a8)
_gpaw:  /zhome/87/8/147075/venv-name/gpaw/
        _gpaw.cpython-38-x86_64-linux-gnu.so (10808453a8)
ase:    /zhome/87/8/147075/venv-name/ase/ase (version 3.23.0b1-c36115a2db)
numpy:  /zhome/87/8/147075/venv-name/lib/python3.8/site-packages/numpy (version 1.24.4)
scipy:  /zhome/87/8/147075/venv-name/lib/python3.8/site-packages/scipy (version 1.10.1)
libxc:  4.3.4
units:  Angstrom and eV
cores: 18
OpenMP: False
OMP_NUM_THREADS: 1

---
input parameters:
  kpts: 
    density: 8.0
    gamma: True
  magmoms: [[4.4079912, 0, 0], [0.08032672, 0, 0], [0.08032672, 0, 0]]
  mixer: 
    backend: 'pulay'
    beta: 0.05
    method: 'sum'
    nmaxold: 5
    weight: 100
  mode: 
    name: 'pw'
    ecut: 800.0
    qspiral: array([0.14728682, 0.14728682, 0.        ])
  parallel: 
    kpt: None
    domain: 1
    band: 1
    order: 'kdb'
    stridebands: False
    augment_grids: False
    sl_auto: False
    sl_default: None
    sl_diagonalize: None
    sl_inverse_cholesky: None
    sl_lcao: None
    sl_lrtddft: None
    use_elpa: False
    elpasolver: '2stage'
    buffer_size: None
    gpu: False
  symmetry: 
    point_group: False
    time_reversal: False
  xc: 
    name: 'LDA'

#                        
#                        
#                        
#                        
#              I         
#                        
#                        
#        Mn              
#          I             
#                        
#                        
#                        
#                        
#                        

atoms: [  # symbols, positions [Ang] and initial magnetic moments
  [ Mn, [   0.000000,    0.000000,    7.649535], [ 4.408,  0.000,  0.000]], # 0
  [  I, [   2.082858,    1.202539,    9.299069], [ 0.080,  0.000,  0.000]], # 1
  [  I, [   0.000000,    2.405077,    6.000000], [ 0.080,  0.000,  0.000]]] # 2

cell: [  # Ang
#     x            y            z
  [   4.165716,    0.000000,    0.000000],
  [  -2.082858,    3.607616,    0.000000],
  [   0.000000,    0.000000,   15.299069]]

periodic: [True      , True      , False     ]
lengths:  [  4.165716,   4.165716,  15.299069]  # Ang
angles:   [ 90.000000,  90.000000, 120.000000]

symmetry:
  number of symmetries: 1
  rotations: [
    [[ 1,  0,  0], [ 0,  1,  0], [ 0,  0,  1]]]

bz sampling:
  number of bz points: 196
  number of ibz points: 196
  monkhorst-pack size: [14, 14, 1]
  monkhorst-pack shift: [0.03571428571428571, 0.03571428571428571, 0.0]
  points and weights: [
    [[ -0.42857143,  -0.42857143,   0.00000000], 0.00510204],  # 0
    [[ -0.42857143,  -0.35714286,   0.00000000], 0.00510204],  # 1
    [[ -0.42857143,  -0.28571429,   0.00000000], 0.00510204],  # 2
    [[ -0.42857143,  -0.21428571,   0.00000000], 0.00510204],  # 3
    [[ -0.42857143,  -0.14285714,   0.00000000], 0.00510204],  # 4
    [[ -0.42857143,  -0.07142857,   0.00000000], 0.00510204],  # 5
    [[ -0.42857143,   0.00000000,   0.00000000], 0.00510204],  # 6
    [[ -0.42857143,   0.07142857,   0.00000000], 0.00510204],  # 7
    [[ -0.42857143,   0.14285714,   0.00000000], 0.00510204],  # 8
    [[ -0.42857143,   0.21428571,   0.00000000], 0.00510204],  # 9
    # ...
    [[  0.50000000,   0.50000000,   0.00000000], 0.00510204]]  # 195

plane wave coefficients: 11927
cutoff: 800.0 eV

spin-components: 4  # (non-collinear spins)
bands: 42
valence electrons: 29.0
spin-degeneracy: 1
dtype: complex128

memory:
    wave functions: 3_105_768_960  # bytes  (172_542_720 per core)

parallelization:
    kpt:    18
    domain: 1
    band:   1

density:
  components: 4
  grid points: [ 28  28 100]
  charge: 0.0  # |e|

potential:
  grid points: [ 28  28 100]

species:
  Mn:
    name: Manganese
    id: 0d715a8018be061a6e9ea6f2d364ac92
    Z: 25.0
    valence: 15
    core: 10
    charge: 0.0
    file: /zhome/86/d/1666/PAW/gpaw-setups-0.9.20000/Mn.LDA.gz
    compensation charges: {type: gauss,
                           rc: 0.38,
                           lmax: 2}
    cutoffs: {filter: 2.14,
              core: 0.86}
    valence states:
      #              energy  rcut
      - 3s(2.00)   -85.387   1.275
      - 4s(2.00)    -5.282   1.275
      - 3p(6.00)   -54.493   1.281
      - 4p(0.00)    -1.471   1.281
      - 3d(5.00)    -7.009   1.138
      -  d          20.203   1.138
  
    # Using partial waves for Mn as LCAO basis

  I:
    name: Iodine
    id: b559721c0c096a7b4c8fc0e0f4de5cf4
    Z: 53.0
    valence: 7
    core: 46
    charge: 0.0
    file: /zhome/86/d/1666/PAW/gpaw-setups-0.9.20000/I.LDA.gz
    compensation charges: {type: gauss,
                           rc: 0.37,
                           lmax: 2}
    cutoffs: {filter: 2.06,
              core: 2.90}
    valence states:
      #              energy  rcut
      - 5s(2.00)   -17.626   1.164
      - 5p(5.00)    -7.241   1.164
      -  s           9.585   1.164
      -  p          19.970   1.164
      -  d           0.000   1.164
  
    # Using partial waves for I as LCAO basis

Reference energy: -418222.442431  # eV

eigensolver:
  name: 'Davidson'
  niter: 2
  converge_bands: 'occupied'
Density mixing:
  Method: sum
  Backend: pulay
  Linear mixing parameter: 0.05
  old densities: 5
  Damping of long wavelength oscillations: 100
occupation numbers:
  Fermi-Dirac:
    width: 0.1000  # eV
  

poisson solver:
  ecut: 6400.0  # eV

xc functional:
  name: None

convergence criteria:
- Maximum [total energy] change in last 3 cyles: 0.0005 eV / valence electron
- Maximum integral of absolute [dens]ity change: 0.0001 electrons / valence electron
- Maximum integral of absolute [eigenst]ate change: 4e-08 eV^2 / valence electron
maximum number of iterations: 333

#      iter     time        total  log10-change:
#                          energy   eigst   dens
# iter:   1 03:27:34   -15.134444                  +4.6,+0.0,+0.0
# iter:   2 03:28:03   -15.191677   -0.54  -1.49   +4.5,-0.0,-0.0
# iter:   3 03:28:32   -15.131844   -1.06  -1.52   +4.5,-0.0,-0.0
# iter:   4 03:29:02   -15.143057   -1.30  -1.58   +4.6,+0.0,-0.0
# iter:   5 03:29:31   -15.195854   -1.61  -1.78   +4.8,+0.0,-0.0
# iter:   6 03:30:00   -15.224897   -1.93  -2.24   +4.8,+0.0,-0.0
# iter:   7 03:30:29   -15.142242   -1.91  -2.17   +4.8,+0.0,-0.0
# iter:   8 03:30:58   -15.135963   -2.28  -2.41   +4.8,+0.0,-0.0
# iter:   9 03:31:27   -15.146527c  -2.55  -2.64   +4.8,+0.0,-0.0
# iter:  10 03:31:57   -15.140253c  -2.98  -2.60   +4.8,+0.0,-0.0
# iter:  11 03:32:26   -15.136233c  -3.00  -2.70   +4.8,+0.0,-0.0
# iter:  12 03:32:55   -15.136251c  -3.29  -3.18   +4.8,+0.0,-0.0
# iter:  13 03:33:24   -15.136216c  -3.62  -3.48   +4.7,+0.0,-0.0
# iter:  14 03:33:54   -15.136661c  -3.64  -3.56   +4.8,+0.0,-0.0
# iter:  15 03:34:23   -15.136274c  -3.72  -3.33   +4.8,+0.0,-0.0
# iter:  16 03:34:52   -15.136272c  -4.09  -3.69   +4.8,+0.0,-0.0
# iter:  17 03:35:21   -15.136307c  -4.28  -3.81   +4.8,+0.0,-0.0
# iter:  18 03:35:51   -15.136252c  -4.41  -3.73   +4.8,+0.0,-0.0
# iter:  19 03:36:20   -15.136253c  -4.61  -4.53c  +4.8,+0.0,-0.0
# iter:  20 03:36:49   -15.136254c  -4.76  -4.95c  +4.8,+0.0,-0.0
# iter:  21 03:37:18   -15.136255c  -4.90  -5.04c  +4.8,+0.0,-0.0
# iter:  22 03:37:48   -15.136255c  -5.05  -5.10c  +4.8,+0.0,-0.0
# iter:  23 03:38:17   -15.136255c  -5.19  -5.18c  +4.8,+0.0,-0.0
# iter:  24 03:38:46   -15.136255c  -5.34  -5.24c  +4.8,+0.0,-0.0
# iter:  25 03:39:15   -15.136256c  -5.49  -5.27c  +4.8,+0.0,-0.0
# iter:  26 03:39:45   -15.136255c  -5.64  -5.42c  +4.8,+0.0,-0.0
# iter:  27 03:40:14   -15.136255c  -5.78  -5.79c  +4.8,+0.0,+0.0
# iter:  28 03:40:43   -15.136255c  -5.92  -5.76c  +4.8,+0.0,-0.0
# iter:  29 03:41:12   -15.136255c  -6.05  -5.66c  +4.8,+0.0,-0.0
# iter:  30 03:41:41   -15.136255c  -6.19  -5.60c  +4.8,+0.0,-0.0
# iter:  31 03:42:10   -15.136255c  -6.33  -5.55c  +4.8,+0.0,+0.0
# iter:  32 03:42:40   -15.136256c  -6.46  -5.61c  +4.8,+0.0,+0.0
# iter:  33 03:43:08   -15.136256c  -6.60  -5.74c  +4.8,+0.0,+0.0
# iter:  34 03:43:38   -15.136256c  -6.72  -5.73c  +4.8,+0.0,-0.0
# iter:  35 03:44:07   -15.136256c  -6.85  -5.78c  +4.8,+0.0,-0.0
# iter:  36 03:44:35   -15.136256c  -6.97  -5.85c  +4.8,+0.0,-0.0
# iter:  37 03:45:04   -15.136256c  -7.10  -5.85c  +4.8,+0.0,-0.0
# iter:  38 03:45:33   -15.136256c  -7.22  -5.82c  +4.8,+0.0,+0.0
# iter:  39 03:46:02   -15.136256c  -7.35  -5.85c  +4.8,+0.0,+0.0
# iter:  40 03:46:31   -15.136256c  -7.48c -5.85c  +4.8,+0.0,+0.0
scf_steps: 40
energies:  # eV
  coulomb:         -12.658769
  zero:              0.093822
  xc:              -17.181726
  external:          0.000000
  kinetic:          14.611036
  spinorbit:         0.000000
  entropy:          -0.001239
  total:           -15.136875
  extrapolated:    -15.136256

dipole moment: [-5.484265, -9.499025, -12.704323]  # |e|*Ang

total magnetic moment: [4.757359, 0.013859, 0.000000]

local magnetic moments: [
  [ 4.339474, -0.000410,  0.000000],  # Mn 0
  [ 0.034051, -0.045231,  0.000000],  # I  1
  [ 0.034050, -0.045231, -0.000000]]  # I  2


Fermi level: -1.253 eV

kpt = [-0.429, -0.429, 0.000], weight = 0.005:
  Band      eig [eV]   occ [0-1]
     0       -82.189       1.000
   ...
    21        -3.952       1.000
    22        -3.930       1.000
    23        -3.814       1.000
    24        -3.735       1.000
    25        -3.577       1.000
    26        -3.565       1.000
    27        -2.150       1.000
    28        -2.064       1.000
    29        -0.533       0.001
    30        -0.190       0.000
    31        -0.141       0.000
    32         0.506       0.000
    33         0.580       0.000
    34         1.293       0.000
    35         2.350       0.000
    36         2.898       0.000
   ...
    41         5.746       0.000

kpt = [-0.429, -0.357, 0.000], weight = 0.005:
  Band      eig [eV]   occ [0-1]
     0       -82.189       1.000
   ...
    21        -4.004       1.000
    22        -3.896       1.000
    23        -3.881       1.000
    24        -3.723       1.000
    25        -3.545       1.000
    26        -3.502       1.000
    27        -2.228       1.000
    28        -2.070       1.000
    29        -0.450       0.000
    30        -0.215       0.000
    31        -0.142       0.000
    32         0.485       0.000
    33         0.541       0.000
    34         1.402       0.000
    35         2.357       0.000
    36         3.093       0.000
   ...
    41         5.042       0.000

kpt = [-0.429, -0.286, 0.000], weight = 0.005:
  Band      eig [eV]   occ [0-1]
     0       -82.189       1.000
   ...
    21        -4.129       1.000
    22        -3.946       1.000
    23        -3.814       1.000
    24        -3.726       1.000
    25        -3.498       1.000
    26        -3.472       1.000
    27        -2.271       1.000
    28        -2.109       1.000
    29        -0.337       0.000
    30        -0.264       0.000
    31        -0.149       0.000
    32         0.421       0.000
    33         0.543       0.000
    34         1.612       0.000
    35         2.355       0.000
    36         3.552       0.000
   ...
    41         5.068       0.000
(only showing first 3 out of 196 k-points)

Gap: 1.092 eV
Transition (v -> c):
  (s=0, k=90, n=28, [0.00, 0.00, 0.00]) -> (s=0, k=188, n=29, [0.50, 0.00, 0.00])
# Writing to Band_Conv/gsq-81.gpw (mode='')

