#  __  _  _
# | _ |_)|_||  |
# |__||  | ||/\| - 24.1.0

User:   s194113@n-62-29-34
Date:   Tue May  7 05:04:00 2024
Arch:   x86_64
Pid:    15878
CWD:    /work3/s194113/10302/10302_NM/MnI2
Python: 3.8.5
gpaw:   /zhome/87/8/147075/venv-name/gpaw/gpaw (10808453a8)
_gpaw:  /zhome/87/8/147075/venv-name/gpaw/
        _gpaw.cpython-38-x86_64-linux-gnu.so (10808453a8)
ase:    /zhome/87/8/147075/venv-name/ase/ase (version 3.23.0b1-c36115a2db)
numpy:  /zhome/87/8/147075/venv-name/lib/python3.8/site-packages/numpy (version 1.24.4)
scipy:  /zhome/87/8/147075/venv-name/lib/python3.8/site-packages/scipy (version 1.10.1)
libxc:  4.3.4
units:  Angstrom and eV
cores: 18
OpenMP: False
OMP_NUM_THREADS: 1

---
input parameters:
  kpts: 
    density: 8.0
    gamma: True
  magmoms: [[4.4079912, 0, 0], [0.08032672, 0, 0], [0.08032672, 0, 0]]
  mixer: 
    backend: 'pulay'
    beta: 0.05
    method: 'sum'
    nmaxold: 5
    weight: 100
  mode: 
    name: 'pw'
    ecut: 800.0
    qspiral: array([0.10852713, 0.10852713, 0.        ])
  parallel: 
    kpt: None
    domain: 1
    band: 1
    order: 'kdb'
    stridebands: False
    augment_grids: False
    sl_auto: False
    sl_default: None
    sl_diagonalize: None
    sl_inverse_cholesky: None
    sl_lcao: None
    sl_lrtddft: None
    use_elpa: False
    elpasolver: '2stage'
    buffer_size: None
    gpu: False
  symmetry: 
    point_group: False
    time_reversal: False
  xc: 
    name: 'LDA'

#                        
#                        
#                        
#                        
#              I         
#                        
#                        
#        Mn              
#          I             
#                        
#                        
#                        
#                        
#                        

atoms: [  # symbols, positions [Ang] and initial magnetic moments
  [ Mn, [   0.000000,    0.000000,    7.649535], [ 4.408,  0.000,  0.000]], # 0
  [  I, [   2.082858,    1.202539,    9.299069], [ 0.080,  0.000,  0.000]], # 1
  [  I, [   0.000000,    2.405077,    6.000000], [ 0.080,  0.000,  0.000]]] # 2

cell: [  # Ang
#     x            y            z
  [   4.165716,    0.000000,    0.000000],
  [  -2.082858,    3.607616,    0.000000],
  [   0.000000,    0.000000,   15.299069]]

periodic: [True      , True      , False     ]
lengths:  [  4.165716,   4.165716,  15.299069]  # Ang
angles:   [ 90.000000,  90.000000, 120.000000]

symmetry:
  number of symmetries: 1
  rotations: [
    [[ 1,  0,  0], [ 0,  1,  0], [ 0,  0,  1]]]

bz sampling:
  number of bz points: 196
  number of ibz points: 196
  monkhorst-pack size: [14, 14, 1]
  monkhorst-pack shift: [0.03571428571428571, 0.03571428571428571, 0.0]
  points and weights: [
    [[ -0.42857143,  -0.42857143,   0.00000000], 0.00510204],  # 0
    [[ -0.42857143,  -0.35714286,   0.00000000], 0.00510204],  # 1
    [[ -0.42857143,  -0.28571429,   0.00000000], 0.00510204],  # 2
    [[ -0.42857143,  -0.21428571,   0.00000000], 0.00510204],  # 3
    [[ -0.42857143,  -0.14285714,   0.00000000], 0.00510204],  # 4
    [[ -0.42857143,  -0.07142857,   0.00000000], 0.00510204],  # 5
    [[ -0.42857143,   0.00000000,   0.00000000], 0.00510204],  # 6
    [[ -0.42857143,   0.07142857,   0.00000000], 0.00510204],  # 7
    [[ -0.42857143,   0.14285714,   0.00000000], 0.00510204],  # 8
    [[ -0.42857143,   0.21428571,   0.00000000], 0.00510204],  # 9
    # ...
    [[  0.50000000,   0.50000000,   0.00000000], 0.00510204]]  # 195

plane wave coefficients: 11927
cutoff: 800.0 eV

spin-components: 4  # (non-collinear spins)
bands: 42
valence electrons: 29.0
spin-degeneracy: 1
dtype: complex128

memory:
    wave functions: 3_105_768_960  # bytes  (172_542_720 per core)

parallelization:
    kpt:    18
    domain: 1
    band:   1

density:
  components: 4
  grid points: [ 28  28 100]
  charge: 0.0  # |e|

potential:
  grid points: [ 28  28 100]

species:
  Mn:
    name: Manganese
    id: 0d715a8018be061a6e9ea6f2d364ac92
    Z: 25.0
    valence: 15
    core: 10
    charge: 0.0
    file: /zhome/86/d/1666/PAW/gpaw-setups-0.9.20000/Mn.LDA.gz
    compensation charges: {type: gauss,
                           rc: 0.38,
                           lmax: 2}
    cutoffs: {filter: 2.14,
              core: 0.86}
    valence states:
      #              energy  rcut
      - 3s(2.00)   -85.387   1.275
      - 4s(2.00)    -5.282   1.275
      - 3p(6.00)   -54.493   1.281
      - 4p(0.00)    -1.471   1.281
      - 3d(5.00)    -7.009   1.138
      -  d          20.203   1.138
  
    # Using partial waves for Mn as LCAO basis

  I:
    name: Iodine
    id: b559721c0c096a7b4c8fc0e0f4de5cf4
    Z: 53.0
    valence: 7
    core: 46
    charge: 0.0
    file: /zhome/86/d/1666/PAW/gpaw-setups-0.9.20000/I.LDA.gz
    compensation charges: {type: gauss,
                           rc: 0.37,
                           lmax: 2}
    cutoffs: {filter: 2.06,
              core: 2.90}
    valence states:
      #              energy  rcut
      - 5s(2.00)   -17.626   1.164
      - 5p(5.00)    -7.241   1.164
      -  s           9.585   1.164
      -  p          19.970   1.164
      -  d           0.000   1.164
  
    # Using partial waves for I as LCAO basis

Reference energy: -418222.442431  # eV

eigensolver:
  name: 'Davidson'
  niter: 2
  converge_bands: 'occupied'
Density mixing:
  Method: sum
  Backend: pulay
  Linear mixing parameter: 0.05
  old densities: 5
  Damping of long wavelength oscillations: 100
occupation numbers:
  Fermi-Dirac:
    width: 0.1000  # eV
  

poisson solver:
  ecut: 6400.0  # eV

xc functional:
  name: None

convergence criteria:
- Maximum [total energy] change in last 3 cyles: 0.0005 eV / valence electron
- Maximum integral of absolute [dens]ity change: 0.0001 electrons / valence electron
- Maximum integral of absolute [eigenst]ate change: 4e-08 eV^2 / valence electron
maximum number of iterations: 333

#      iter     time        total  log10-change:
#                          energy   eigst   dens
# iter:   1 05:04:47   -15.175056                  +4.6,+0.0,+0.0
# iter:   2 05:05:16   -15.190913   -0.64  -1.49   +4.6,-0.0,-0.0
# iter:   3 05:05:46   -15.123605   -1.12  -1.52   +4.6,+0.0,+0.0
# iter:   4 05:06:16   -15.132801   -1.39  -1.58   +4.7,+0.0,-0.0
# iter:   5 05:06:46   -15.179893   -1.67  -1.79   +4.8,+0.0,-0.0
# iter:   6 05:07:16   -15.144719   -1.98  -2.26   +4.9,+0.0,-0.0
# iter:   7 05:07:45   -15.147387   -1.89  -2.29   +4.9,+0.0,-0.0
# iter:   8 05:08:15   -15.131564   -2.44  -2.47   +4.8,+0.0,-0.0
# iter:   9 05:08:45   -15.133034   -2.75  -2.84   +4.8,+0.0,-0.0
# iter:  10 05:09:14   -15.131985c  -3.08  -2.75   +4.8,+0.0,-0.0
# iter:  11 05:09:44   -15.132013c  -3.32  -2.80   +4.8,+0.0,-0.0
# iter:  12 05:10:13   -15.134623c  -3.10  -2.85   +4.8,+0.0,-0.0
# iter:  13 05:10:43   -15.131822c  -3.45  -2.86   +4.8,+0.0,-0.0
# iter:  14 05:11:13   -15.131787c  -3.84  -3.28   +4.8,+0.0,-0.0
# iter:  15 05:11:42   -15.131908c  -4.05  -3.45   +4.8,+0.0,-0.0
# iter:  16 05:12:12   -15.131811c  -4.18  -3.49   +4.8,+0.0,-0.0
# iter:  17 05:12:41   -15.131840c  -4.28  -3.64   +4.8,+0.0,-0.0
# iter:  18 05:13:11   -15.131828c  -4.45  -3.69   +4.9,+0.0,-0.0
# iter:  19 05:13:40   -15.131832c  -4.67  -3.92   +4.9,+0.0,-0.0
# iter:  20 05:14:10   -15.131854c  -4.81  -4.12c  +4.9,+0.0,-0.0
# iter:  21 05:14:39   -15.131830c  -4.93  -4.05c  +4.9,+0.0,-0.0
# iter:  22 05:15:09   -15.131832c  -5.15  -4.32c  +4.9,+0.0,-0.0
# iter:  23 05:15:38   -15.131833c  -5.30  -4.80c  +4.9,+0.0,-0.0
# iter:  24 05:16:08   -15.131832c  -5.45  -4.85c  +4.9,+0.0,-0.0
# iter:  25 05:16:37   -15.131833c  -5.59  -4.90c  +4.9,+0.0,-0.0
# iter:  26 05:17:06   -15.131833c  -5.74  -4.95c  +4.9,+0.0,-0.0
# iter:  27 05:17:35   -15.131833c  -5.88  -4.95c  +4.9,+0.0,-0.0
# iter:  28 05:18:04   -15.131833c  -6.03  -4.97c  +4.9,+0.0,-0.0
# iter:  29 05:18:34   -15.131834c  -6.18  -5.04c  +4.9,+0.0,-0.0
# iter:  30 05:19:03   -15.131834c  -6.32  -5.13c  +4.9,+0.0,-0.0
# iter:  31 05:19:32   -15.131834c  -6.46  -5.23c  +4.9,+0.0,-0.0
# iter:  32 05:20:01   -15.131834c  -6.61  -5.30c  +4.9,+0.0,-0.0
# iter:  33 05:20:30   -15.131834c  -6.75  -5.42c  +4.9,+0.0,-0.0
# iter:  34 05:21:00   -15.131834c  -6.89  -5.49c  +4.9,+0.0,-0.0
# iter:  35 05:21:29   -15.131834c  -7.04  -5.59c  +4.9,+0.0,-0.0
# iter:  36 05:21:59   -15.131834c  -7.17  -5.61c  +4.9,+0.0,-0.0
# iter:  37 05:22:28   -15.131834c  -7.30  -5.65c  +4.9,+0.0,-0.0
# iter:  38 05:22:57   -15.131834c  -7.44c -5.72c  +4.9,+0.0,-0.0
scf_steps: 38
energies:  # eV
  coulomb:         -12.783420
  zero:              0.093410
  xc:              -17.205675
  external:          0.000000
  kinetic:          14.764609
  spinorbit:         0.000000
  entropy:          -0.001515
  total:           -15.132592
  extrapolated:    -15.131834

dipole moment: [-5.623351, -9.739930, -13.454143]  # |e|*Ang

total magnetic moment: [4.853165, 0.013130, -0.000000]

local magnetic moments: [
  [ 4.347323, -0.000426, -0.000000],  # Mn 0
  [ 0.053046, -0.043070,  0.000000],  # I  1
  [ 0.053045, -0.043070, -0.000000]]  # I  2


Fermi level: -1.259 eV

kpt = [-0.429, -0.429, 0.000], weight = 0.005:
  Band      eig [eV]   occ [0-1]
     0       -82.201       1.000
   ...
    21        -3.948       1.000
    22        -3.916       1.000
    23        -3.840       1.000
    24        -3.744       1.000
    25        -3.622       1.000
    26        -3.577       1.000
    27        -2.119       1.000
    28        -2.091       1.000
    29        -0.553       0.001
    30        -0.180       0.000
    31        -0.147       0.000
    32         0.491       0.000
    33         0.607       0.000
    34         1.287       0.000
    35         2.328       0.000
    36         2.944       0.000
   ...
    41         5.408       0.000

kpt = [-0.429, -0.357, 0.000], weight = 0.005:
  Band      eig [eV]   occ [0-1]
     0       -82.201       1.000
   ...
    21        -4.064       1.000
    22        -3.964       1.000
    23        -3.857       1.000
    24        -3.708       1.000
    25        -3.568       1.000
    26        -3.537       1.000
    27        -2.216       1.000
    28        -2.130       1.000
    29        -0.434       0.000
    30        -0.202       0.000
    31        -0.146       0.000
    32         0.445       0.000
    33         0.554       0.000
    34         1.483       0.000
    35         2.405       0.000
    36         3.320       0.000
   ...
    41         4.836       0.000

kpt = [-0.429, -0.286, 0.000], weight = 0.005:
  Band      eig [eV]   occ [0-1]
     0       -82.201       1.000
   ...
    21        -4.161       1.000
    22        -3.995       1.000
    23        -3.804       1.000
    24        -3.736       1.000
    25        -3.528       1.000
    26        -3.511       1.000
    27        -2.301       1.000
    28        -2.140       1.000
    29        -0.335       0.000
    30        -0.235       0.000
    31        -0.152       0.000
    32         0.397       0.000
    33         0.541       0.000
    34         1.684       0.000
    35         2.459       0.000
    36         3.725       0.000
   ...
    41         5.203       0.000
(only showing first 3 out of 196 k-points)

Gap: 0.997 eV
Transition (v -> c):
  (s=0, k=90, n=28, [0.00, 0.00, 0.00]) -> (s=0, k=188, n=29, [0.50, 0.00, 0.00])
# Writing to Band_Conv/gsq-86.gpw (mode='')

