#  __  _  _
# | _ |_)|_||  |
# |__||  | ||/\| - 24.1.0

User:   s194113@n-62-28-16
Date:   Fri Apr 26 02:49:51 2024
Arch:   x86_64
Pid:    5951
CWD:    /work3/s194113/10302/10302_NM/NiI2
Python: 3.8.5
gpaw:   /zhome/87/8/147075/venv-name/gpaw/gpaw (10808453a8)
_gpaw:  /zhome/87/8/147075/venv-name/gpaw/
        _gpaw.cpython-38-x86_64-linux-gnu.so (10808453a8)
ase:    /zhome/87/8/147075/venv-name/ase/ase (version 3.23.0b1-c36115a2db)
numpy:  /zhome/87/8/147075/venv-name/lib/python3.8/site-packages/numpy (version 1.24.4)
scipy:  /zhome/87/8/147075/venv-name/lib/python3.8/site-packages/scipy (version 1.10.1)
libxc:  4.3.4
units:  Angstrom and eV
cores: 12
OpenMP: False
OMP_NUM_THREADS: 1

---
input parameters:
  kpts: 
    density: 6.0
    gamma: True
  magmoms: [[1.28782608, 0, 0], [0.19870794, 0, 0], [0.19870794, 0, 0]]
  mixer: 
    backend: 'pulay'
    beta: 0.05
    method: 'sum'
    nmaxold: 5
    weight: 100
  mode: 
    name: 'pw'
    ecut: 600.0
    qspiral: array([0.48611111, 0.        , 0.        ])
  parallel: 
    kpt: None
    domain: 1
    band: 1
    order: 'kdb'
    stridebands: False
    augment_grids: False
    sl_auto: False
    sl_default: None
    sl_diagonalize: None
    sl_inverse_cholesky: None
    sl_lcao: None
    sl_lrtddft: None
    use_elpa: False
    elpasolver: '2stage'
    buffer_size: None
    gpu: False
  symmetry: 
    point_group: False
    time_reversal: False
  xc: 
    name: 'LDA'

#                        
#                        
#                        
#                        
#                        
#              I         
#                        
#        Ni              
#          I             
#                        
#                        
#                        
#                        
#                        

atoms: [  # symbols, positions [Ang] and initial magnetic moments
  [ Ni, [   0.000000,    0.000000,    7.513573], [ 1.288,  0.000,  0.000]], # 0
  [  I, [   1.984831,    1.145943,    9.027147], [ 0.199,  0.000,  0.000]], # 1
  [  I, [   0.000000,    2.291885,    6.000000], [ 0.199,  0.000,  0.000]]] # 2

cell: [  # Ang
#     x            y            z
  [   3.969662,    0.000000,    0.000000],
  [  -1.984831,    3.437828,    0.000000],
  [   0.000000,    0.000000,   15.027147]]

periodic: [True      , True      , False     ]
lengths:  [  3.969662,   3.969662,  15.027147]  # Ang
angles:   [ 90.000000,  90.000000, 120.000000]

symmetry:
  number of symmetries: 1
  rotations: [
    [[ 1,  0,  0], [ 0,  1,  0], [ 0,  0,  1]]]

bz sampling:
  number of bz points: 121
  number of ibz points: 121
  monkhorst-pack size: [11, 11, 1]
  monkhorst-pack shift: [0, 0, 0]
  points and weights: [
    [[ -0.45454545,  -0.45454545,   0.00000000], 0.00826446],  # 0
    [[ -0.45454545,  -0.36363636,   0.00000000], 0.00826446],  # 1
    [[ -0.45454545,  -0.27272727,   0.00000000], 0.00826446],  # 2
    [[ -0.45454545,  -0.18181818,   0.00000000], 0.00826446],  # 3
    [[ -0.45454545,  -0.09090909,   0.00000000], 0.00826446],  # 4
    [[ -0.45454545,   0.00000000,   0.00000000], 0.00826446],  # 5
    [[ -0.45454545,   0.09090909,   0.00000000], 0.00826446],  # 6
    [[ -0.45454545,   0.18181818,   0.00000000], 0.00826446],  # 7
    [[ -0.45454545,   0.27272727,   0.00000000], 0.00826446],  # 8
    [[ -0.45454545,   0.36363636,   0.00000000], 0.00826446],  # 9
    # ...
    [[  0.45454545,   0.45454545,   0.00000000], 0.00826446]]  # 120

plane wave coefficients: 6874
cutoff: 600.0 eV

spin-components: 4  # (non-collinear spins)
bands: 40
valence electrons: 30.0
spin-degeneracy: 1
dtype: complex128

memory:
    wave functions: 1_060_928_000  # bytes  (88_410_666 per core)

parallelization:
    kpt:    12
    domain: 1
    band:   1

density:
  components: 4
  grid points: [24 24 90]
  charge: 0.0  # |e|

potential:
  grid points: [24 24 90]

species:
  Ni:
    name: Nickel
    id: 1802175e8de9ea26d9f4394ec1a7d564
    Z: 28.0
    valence: 16
    core: 12
    charge: 0.0
    file: /zhome/86/d/1666/PAW/gpaw-setups-0.9.20000/Ni.LDA.gz
    compensation charges: {type: gauss,
                           rc: 0.36,
                           lmax: 2}
    cutoffs: {filter: 2.14,
              core: 1.98}
    valence states:
      #              energy  rcut
      - 4s(2.00)    -5.858   1.164
      - 3p(6.00)   -71.266   1.207
      - 4p(0.00)    -1.338   1.207
      - 3d(8.00)    -9.141   1.138
      -  s          21.353   1.164
      -  d          18.071   1.138
  
    # Using partial waves for Ni as LCAO basis

  I:
    name: Iodine
    id: b559721c0c096a7b4c8fc0e0f4de5cf4
    Z: 53.0
    valence: 7
    core: 46
    charge: 0.0
    file: /zhome/86/d/1666/PAW/gpaw-setups-0.9.20000/I.LDA.gz
    compensation charges: {type: gauss,
                           rc: 0.37,
                           lmax: 2}
    cutoffs: {filter: 2.06,
              core: 2.90}
    valence states:
      #              energy  rcut
      - 5s(2.00)   -17.626   1.164
      - 5p(5.00)    -7.241   1.164
      -  s           9.585   1.164
      -  p          19.970   1.164
      -  d           0.000   1.164
  
    # Using partial waves for I as LCAO basis

Reference energy: -428067.566327  # eV

eigensolver:
  name: 'Davidson'
  niter: 2
  converge_bands: 'occupied'
Density mixing:
  Method: sum
  Backend: pulay
  Linear mixing parameter: 0.05
  old densities: 5
  Damping of long wavelength oscillations: 100
occupation numbers:
  Fermi-Dirac:
    width: 0.1000  # eV
  

poisson solver:
  ecut: 4800.0  # eV

xc functional:
  name: None

convergence criteria:
- Maximum [total energy] change in last 3 cyles: 0.0005 eV / valence electron
- Maximum integral of absolute [dens]ity change: 0.0001 electrons / valence electron
- Maximum integral of absolute [eigenst]ate change: 4e-08 eV^2 / valence electron
maximum number of iterations: 333

#      iter     time        total  log10-change:
#                          energy   eigst   dens
# iter:   1 02:50:17   -12.944279                  +1.7,+0.0,+0.0
# iter:   2 02:50:34   -12.454225   +0.30  -1.31   +1.1,-0.0,-0.0
# iter:   3 02:50:51   -12.160990   -0.33  -1.45   +1.0,-0.0,+0.0
# iter:   4 02:51:07   -12.218205   -0.89  -1.68   +1.1,-0.0,+0.0
# iter:   5 02:51:24   -12.557155   -1.05  -1.67   +1.0,-0.0,-0.0
# iter:   6 02:51:41   -12.242162   -1.25  -1.68   +1.0,-0.0,-0.0
# iter:   7 02:51:58   -12.247337   -1.54  -2.25   +1.0,+0.0,+0.0
# iter:   8 02:52:15   -12.242633c  -1.72  -2.35   +1.1,+0.0,-0.0
# iter:   9 02:52:31   -12.243839c  -1.86  -2.62   +1.1,+0.0,-0.0
# iter:  10 02:52:48   -12.244530c  -2.04  -3.04   +1.1,+0.0,+0.0
# iter:  11 02:53:05   -12.252391c  -2.17  -3.02   +1.1,+0.0,+0.0
# iter:  12 02:53:22   -12.252385c  -2.34  -2.66   +1.1,+0.0,+0.0
# iter:  13 02:53:38   -12.247945c  -2.43  -2.66   +1.1,+0.0,+0.0
# iter:  14 02:53:55   -12.249222c  -2.62  -3.24   +1.1,+0.0,+0.0
# iter:  15 02:54:12   -12.247794c  -2.73  -3.05   +1.1,+0.0,+0.0
# iter:  16 02:54:28   -12.247845c  -2.88  -3.53   +1.1,+0.0,+0.0
# iter:  17 02:54:45   -12.248268c  -3.02  -3.56   +1.1,+0.0,+0.0
# iter:  18 02:55:02   -12.248337c  -3.15  -3.57   +1.1,+0.0,+0.0
# iter:  19 02:55:18   -12.249072c  -3.27  -3.62   +1.1,+0.0,+0.0
# iter:  20 02:55:35   -12.249074c  -3.41  -3.61   +1.1,+0.0,+0.0
# iter:  21 02:55:52   -12.249027c  -3.55  -3.67   +1.1,+0.0,+0.0
# iter:  22 02:56:08   -12.249191c  -3.68  -3.67   +1.1,+0.0,+0.0
# iter:  23 02:56:25   -12.249229c  -3.81  -3.67   +1.1,+0.0,+0.0
# iter:  24 02:56:42   -12.249318c  -3.95  -3.67   +1.1,+0.0,+0.0
# iter:  25 02:56:58   -12.249342c  -4.08  -3.67   +1.1,+0.0,+0.0
# iter:  26 02:57:15   -12.249345c  -4.22  -3.68   +1.1,+0.0,+0.0
# iter:  27 02:57:32   -12.249306c  -4.36  -3.68   +1.1,+0.0,+0.0
# iter:  28 02:57:48   -12.249406c  -4.49  -3.68   +1.1,+0.0,+0.0
# iter:  29 02:58:05   -12.249301c  -4.62  -3.68   +1.1,+0.0,+0.0
# iter:  30 02:58:21   -12.249374c  -4.76  -3.66   +1.1,+0.0,+0.0
# iter:  31 02:58:38   -12.249539c  -4.90  -3.71   +1.1,+0.0,+0.0
# iter:  32 02:58:55   -12.249766c  -4.96  -3.79   +1.1,+0.0,-0.0
# iter:  33 02:59:11   -12.249762c  -5.14  -4.26c  +1.1,+0.0,-0.0
# iter:  34 02:59:28   -12.249683c  -5.29  -4.37c  +1.1,+0.0,-0.0
# iter:  35 02:59:44   -12.249659c  -5.42  -4.44c  +1.1,+0.0,-0.0
# iter:  36 03:00:01   -12.249673c  -5.55  -4.48c  +1.1,+0.0,-0.0
# iter:  37 03:00:17   -12.249689c  -5.69  -4.70c  +1.1,+0.0,-0.0
# iter:  38 03:00:34   -12.249729c  -5.82  -4.73c  +1.1,+0.0,-0.0
# iter:  39 03:00:51   -12.249773c  -5.94  -4.77c  +1.1,+0.0,-0.0
# iter:  40 03:01:07   -12.249799c  -6.08  -4.86c  +1.1,+0.0,-0.0
# iter:  41 03:01:24   -12.249808c  -6.22  -4.92c  +1.1,+0.0,-0.0
# iter:  42 03:01:41   -12.249877c  -6.31  -4.94c  +1.1,+0.0,-0.0
# iter:  43 03:01:57   -12.249883c  -6.49  -5.14c  +1.1,+0.0,-0.0
# iter:  44 03:02:14   -12.249932c  -6.62  -5.19c  +1.1,+0.0,-0.0
# iter:  45 03:02:30   -12.249937c  -6.77  -5.32c  +1.1,+0.0,-0.0
# iter:  46 03:02:47   -12.249933c  -6.90  -5.45c  +1.1,+0.0,-0.0
# iter:  47 03:03:04   -12.249938c  -7.04  -5.61c  +1.1,+0.0,-0.0
# iter:  48 03:03:20   -12.249936c  -7.17  -5.82c  +1.1,+0.0,-0.0
# iter:  49 03:03:37   -12.249932c  -7.31  -5.89c  +1.1,+0.0,-0.0
# iter:  50 03:03:54   -12.249932c  -7.45c -6.02c  +1.1,+0.0,-0.0
scf_steps: 50
energies:  # eV
  coulomb:          -8.047825
  zero:              0.066259
  xc:              -14.909394
  external:          0.000000
  kinetic:          10.676551
  spinorbit:         0.000000
  entropy:          -0.071046
  total:           -12.285454
  extrapolated:    -12.249932

dipole moment: [-3.396246, -6.106565, -0.897879]  # |e|*Ang

total magnetic moment: [1.144786, 0.001517, -0.000000]

local magnetic moments: [
  [ 1.107757, -0.000476, -0.000000],  # Ni 0
  [-0.056625, -0.009899, -0.000000],  # I  1
  [ 0.057271, -0.004976, -0.000000]]  # I  2


Fermi level: -1.196 eV

kpt = [-0.455, -0.455, 0.000], weight = 0.008:
  Band      eig [eV]   occ [0-1]
     0       -64.948       1.000
   ...
    22        -2.996       1.000
    23        -2.931       1.000
    24        -2.682       1.000
    25        -2.292       1.000
    26        -2.183       1.000
    27        -2.097       1.000
    28        -1.859       0.999
    29        -1.579       0.979
    30        -1.024       0.151
    31        -0.742       0.011
    32         2.378       0.000
    33         2.537       0.000
    34         4.236       0.000
    35         4.447       0.000
    36         4.807       0.000
    37         5.163       0.000
   ...
    39         5.576       0.000

kpt = [-0.455, -0.364, 0.000], weight = 0.008:
  Band      eig [eV]   occ [0-1]
     0       -64.948       1.000
   ...
    22        -2.948       1.000
    23        -2.890       1.000
    24        -2.708       1.000
    25        -2.409       1.000
    26        -2.122       1.000
    27        -2.103       1.000
    28        -1.763       0.997
    29        -1.523       0.963
    30        -0.983       0.106
    31        -0.706       0.007
    32         2.155       0.000
    33         2.467       0.000
    34         3.914       0.000
    35         4.432       0.000
    36         4.622       0.000
    37         4.909       0.000
   ...
    39         5.551       0.000

kpt = [-0.455, -0.273, 0.000], weight = 0.008:
  Band      eig [eV]   occ [0-1]
     0       -64.948       1.000
   ...
    22        -2.929       1.000
    23        -2.819       1.000
    24        -2.636       1.000
    25        -2.446       1.000
    26        -2.113       1.000
    27        -2.039       1.000
    28        -1.815       0.998
    29        -1.452       0.928
    30        -1.078       0.234
    31        -0.648       0.004
    32         2.344       0.000
    33         2.662       0.000
    34         3.796       0.000
    35         4.164       0.000
    36         4.342       0.000
    37         4.766       0.000
   ...
    39         5.814       0.000
(only showing first 3 out of 121 k-points)

No gap
# Writing to Band/gsq-35.gpw (mode='')

---

timing:  # [seconds]
  Total: 2362.034  # ━━━━━━━━━━━━━━━━━━━━━━━━━━━━━━━━━━━━━━━━━━━━━━━━━━━━━━━━
  Init:    10.832  # ╸
  SCF:    832.027  # ━━━━━━━━━━━━━━━━━━━╸

Max RSS: 1662.352  # MiB
