#  __  _  _
# | _ |_)|_||  |
# |__||  | ||/\| - 24.1.0

User:   s194113@n-62-28-16
Date:   Fri Apr 26 15:27:27 2024
Arch:   x86_64
Pid:    5951
CWD:    /work3/s194113/10302/10302_NM/NiI2
Python: 3.8.5
gpaw:   /zhome/87/8/147075/venv-name/gpaw/gpaw (10808453a8)
_gpaw:  /zhome/87/8/147075/venv-name/gpaw/
        _gpaw.cpython-38-x86_64-linux-gnu.so (10808453a8)
ase:    /zhome/87/8/147075/venv-name/ase/ase (version 3.23.0b1-c36115a2db)
numpy:  /zhome/87/8/147075/venv-name/lib/python3.8/site-packages/numpy (version 1.24.4)
scipy:  /zhome/87/8/147075/venv-name/lib/python3.8/site-packages/scipy (version 1.10.1)
libxc:  4.3.4
units:  Angstrom and eV
cores: 12
OpenMP: False
OMP_NUM_THREADS: 1

---
input parameters:
  kpts: 
    density: 6.0
    gamma: True
  magmoms: [[1.28782608, 0, 0], [0.19870794, 0, 0], [0.19870794, 0, 0]]
  mixer: 
    backend: 'pulay'
    beta: 0.05
    method: 'sum'
    nmaxold: 5
    weight: 100
  mode: 
    name: 'pw'
    ecut: 600.0
    qspiral: array([0.06976744, 0.06976744, 0.        ])
  parallel: 
    kpt: None
    domain: 1
    band: 1
    order: 'kdb'
    stridebands: False
    augment_grids: False
    sl_auto: False
    sl_default: None
    sl_diagonalize: None
    sl_inverse_cholesky: None
    sl_lcao: None
    sl_lrtddft: None
    use_elpa: False
    elpasolver: '2stage'
    buffer_size: None
    gpu: False
  symmetry: 
    point_group: False
    time_reversal: False
  xc: 
    name: 'LDA'

#                        
#                        
#                        
#                        
#                        
#              I         
#                        
#        Ni              
#          I             
#                        
#                        
#                        
#                        
#                        

atoms: [  # symbols, positions [Ang] and initial magnetic moments
  [ Ni, [   0.000000,    0.000000,    7.513573], [ 1.288,  0.000,  0.000]], # 0
  [  I, [   1.984831,    1.145943,    9.027147], [ 0.199,  0.000,  0.000]], # 1
  [  I, [   0.000000,    2.291885,    6.000000], [ 0.199,  0.000,  0.000]]] # 2

cell: [  # Ang
#     x            y            z
  [   3.969662,    0.000000,    0.000000],
  [  -1.984831,    3.437828,    0.000000],
  [   0.000000,    0.000000,   15.027147]]

periodic: [True      , True      , False     ]
lengths:  [  3.969662,   3.969662,  15.027147]  # Ang
angles:   [ 90.000000,  90.000000, 120.000000]

symmetry:
  number of symmetries: 1
  rotations: [
    [[ 1,  0,  0], [ 0,  1,  0], [ 0,  0,  1]]]

bz sampling:
  number of bz points: 121
  number of ibz points: 121
  monkhorst-pack size: [11, 11, 1]
  monkhorst-pack shift: [0, 0, 0]
  points and weights: [
    [[ -0.45454545,  -0.45454545,   0.00000000], 0.00826446],  # 0
    [[ -0.45454545,  -0.36363636,   0.00000000], 0.00826446],  # 1
    [[ -0.45454545,  -0.27272727,   0.00000000], 0.00826446],  # 2
    [[ -0.45454545,  -0.18181818,   0.00000000], 0.00826446],  # 3
    [[ -0.45454545,  -0.09090909,   0.00000000], 0.00826446],  # 4
    [[ -0.45454545,   0.00000000,   0.00000000], 0.00826446],  # 5
    [[ -0.45454545,   0.09090909,   0.00000000], 0.00826446],  # 6
    [[ -0.45454545,   0.18181818,   0.00000000], 0.00826446],  # 7
    [[ -0.45454545,   0.27272727,   0.00000000], 0.00826446],  # 8
    [[ -0.45454545,   0.36363636,   0.00000000], 0.00826446],  # 9
    # ...
    [[  0.45454545,   0.45454545,   0.00000000], 0.00826446]]  # 120

plane wave coefficients: 6874
cutoff: 600.0 eV

spin-components: 4  # (non-collinear spins)
bands: 40
valence electrons: 30.0
spin-degeneracy: 1
dtype: complex128

memory:
    wave functions: 1_060_928_000  # bytes  (88_410_666 per core)

parallelization:
    kpt:    12
    domain: 1
    band:   1

density:
  components: 4
  grid points: [24 24 90]
  charge: 0.0  # |e|

potential:
  grid points: [24 24 90]

species:
  Ni:
    name: Nickel
    id: 1802175e8de9ea26d9f4394ec1a7d564
    Z: 28.0
    valence: 16
    core: 12
    charge: 0.0
    file: /zhome/86/d/1666/PAW/gpaw-setups-0.9.20000/Ni.LDA.gz
    compensation charges: {type: gauss,
                           rc: 0.36,
                           lmax: 2}
    cutoffs: {filter: 2.14,
              core: 1.98}
    valence states:
      #              energy  rcut
      - 4s(2.00)    -5.858   1.164
      - 3p(6.00)   -71.266   1.207
      - 4p(0.00)    -1.338   1.207
      - 3d(8.00)    -9.141   1.138
      -  s          21.353   1.164
      -  d          18.071   1.138
  
    # Using partial waves for Ni as LCAO basis

  I:
    name: Iodine
    id: b559721c0c096a7b4c8fc0e0f4de5cf4
    Z: 53.0
    valence: 7
    core: 46
    charge: 0.0
    file: /zhome/86/d/1666/PAW/gpaw-setups-0.9.20000/I.LDA.gz
    compensation charges: {type: gauss,
                           rc: 0.37,
                           lmax: 2}
    cutoffs: {filter: 2.06,
              core: 2.90}
    valence states:
      #              energy  rcut
      - 5s(2.00)   -17.626   1.164
      - 5p(5.00)    -7.241   1.164
      -  s           9.585   1.164
      -  p          19.970   1.164
      -  d           0.000   1.164
  
    # Using partial waves for I as LCAO basis

Reference energy: -428067.566327  # eV

eigensolver:
  name: 'Davidson'
  niter: 2
  converge_bands: 'occupied'
Density mixing:
  Method: sum
  Backend: pulay
  Linear mixing parameter: 0.05
  old densities: 5
  Damping of long wavelength oscillations: 100
occupation numbers:
  Fermi-Dirac:
    width: 0.1000  # eV
  

poisson solver:
  ecut: 4800.0  # eV

xc functional:
  name: None

convergence criteria:
- Maximum [total energy] change in last 3 cyles: 0.0005 eV / valence electron
- Maximum integral of absolute [dens]ity change: 0.0001 electrons / valence electron
- Maximum integral of absolute [eigenst]ate change: 4e-08 eV^2 / valence electron
maximum number of iterations: 333

#      iter     time        total  log10-change:
#                          energy   eigst   dens
# iter:   1 15:27:53   -13.827764                  +1.7,+0.0,+0.0
# iter:   2 15:28:10   -12.664912   -0.48  -1.32   +1.5,-0.0,-0.0
# iter:   3 15:28:27   -12.246094   -0.75  -1.46   +1.5,-0.0,-0.0
# iter:   4 15:28:43   -12.305701   -1.44  -1.68   +1.6,-0.0,-0.0
# iter:   5 15:29:00   -12.496812   -1.59  -1.66   +1.6,+0.0,+0.0
# iter:   6 15:29:16   -12.321551   -1.82  -1.80   +1.7,+0.0,-0.0
# iter:   7 15:29:32   -12.309202   -2.20  -2.18   +1.7,+0.0,-0.0
# iter:   8 15:29:49   -12.305075   -2.47  -2.33   +1.7,+0.0,-0.0
# iter:   9 15:30:05   -12.303621c  -2.58  -2.54   +1.7,+0.0,-0.0
# iter:  10 15:30:22   -12.304894c  -2.91  -3.02   +1.7,+0.0,+0.0
# iter:  11 15:30:38   -12.307488c  -3.11  -2.98   +1.7,+0.0,+0.0
# iter:  12 15:30:55   -12.305009c  -3.26  -2.82   +1.7,+0.0,+0.0
# iter:  13 15:31:11   -12.304872c  -3.49  -3.30   +1.7,+0.0,+0.0
# iter:  14 15:31:27   -12.304821c  -3.68  -3.48   +1.7,+0.0,+0.0
# iter:  15 15:31:44   -12.304716c  -3.81  -3.61   +1.7,+0.0,+0.0
# iter:  16 15:32:00   -12.304822c  -4.01  -3.77   +1.7,+0.0,+0.0
# iter:  17 15:32:17   -12.304873c  -4.18  -3.67   +1.7,+0.0,+0.0
# iter:  18 15:32:33   -12.304876c  -4.36  -4.00   +1.7,+0.0,+0.0
# iter:  19 15:32:50   -12.305092c  -4.49  -4.00c  +1.7,+0.0,+0.0
# iter:  20 15:33:06   -12.305284c  -4.66  -3.96   +1.7,+0.0,+0.0
# iter:  21 15:33:23   -12.305255c  -4.83  -4.24c  +1.7,+0.0,+0.0
# iter:  22 15:33:39   -12.305437c  -4.96  -4.08c  +1.8,+0.0,+0.0
# iter:  23 15:33:55   -12.305484c  -5.11  -4.03c  +1.7,+0.0,+0.0
# iter:  24 15:34:12   -12.305400c  -5.30  -4.29c  +1.7,+0.0,+0.0
# iter:  25 15:34:28   -12.305507c  -5.46  -4.18c  +1.7,+0.0,+0.0
# iter:  26 15:34:45   -12.305512c  -5.62  -4.18c  +1.7,+0.0,+0.0
# iter:  27 15:35:01   -12.305451c  -5.74  -4.30c  +1.7,+0.0,+0.0
# iter:  28 15:35:18   -12.305463c  -5.96  -4.47c  +1.7,+0.0,+0.0
# iter:  29 15:35:34   -12.305474c  -6.12  -4.54c  +1.7,+0.0,+0.0
# iter:  30 15:35:51   -12.305556c  -5.95  -4.54c  +1.8,+0.0,+0.0
# iter:  31 15:36:07   -12.305585c  -6.38  -4.46c  +1.8,+0.0,+0.0
# iter:  32 15:36:24   -12.305587c  -6.61  -5.14c  +1.8,+0.0,-0.0
# iter:  33 15:36:40   -12.305596c  -6.76  -5.15c  +1.8,+0.0,-0.0
# iter:  34 15:36:56   -12.305593c  -6.92  -5.13c  +1.8,+0.0,-0.0
# iter:  35 15:37:13   -12.305582c  -7.01  -5.13c  +1.8,+0.0,-0.0
# iter:  36 15:37:29   -12.305593c  -7.18  -4.83c  +1.8,+0.0,-0.0
# iter:  37 15:37:45   -12.305597c  -7.36  -5.21c  +1.8,+0.0,-0.0
# iter:  38 15:38:02   -12.305595c  -7.55c -5.30c  +1.8,+0.0,-0.0
scf_steps: 38
energies:  # eV
  coulomb:          -7.895956
  zero:              0.065998
  xc:              -14.939339
  external:          0.000000
  kinetic:          10.486012
  spinorbit:         0.000000
  entropy:          -0.044622
  total:           -12.327905
  extrapolated:    -12.305595

dipole moment: [-4.102012, -7.104505, -5.872550]  # |e|*Ang

total magnetic moment: [1.752040, 0.012166, -0.000000]

local magnetic moments: [
  [ 1.143164, -0.005094, -0.000000],  # Ni 0
  [ 0.154708, -0.073369,  0.000000],  # I  1
  [ 0.154707, -0.073372,  0.000000]]  # I  2


Fermi level: -1.184 eV

kpt = [-0.455, -0.455, 0.000], weight = 0.008:
  Band      eig [eV]   occ [0-1]
     0       -64.970       1.000
   ...
    22        -3.134       1.000
    23        -2.988       1.000
    24        -2.912       1.000
    25        -2.293       1.000
    26        -2.155       1.000
    27        -2.130       1.000
    28        -1.633       0.989
    29        -1.622       0.988
    30        -0.685       0.007
    31        -0.668       0.006
    32         1.573       0.000
    33         2.235       0.000
    34         3.641       0.000
    35         4.560       0.000
    36         4.579       0.000
    37         4.666       0.000
   ...
    39         5.101       0.000

kpt = [-0.455, -0.364, 0.000], weight = 0.008:
  Band      eig [eV]   occ [0-1]
     0       -64.970       1.000
   ...
    22        -3.063       1.000
    23        -2.942       1.000
    24        -2.810       1.000
    25        -2.268       1.000
    26        -2.142       1.000
    27        -2.070       1.000
    28        -1.844       0.999
    29        -1.652       0.991
    30        -0.879       0.045
    31        -0.719       0.010
    32         1.965       0.000
    33         2.591       0.000
    34         4.207       0.000
    35         4.528       0.000
    36         4.697       0.000
    37         4.911       0.000
   ...
    39         5.466       0.000

kpt = [-0.455, -0.273, 0.000], weight = 0.008:
  Band      eig [eV]   occ [0-1]
     0       -64.970       1.000
   ...
    22        -3.038       1.000
    23        -2.915       1.000
    24        -2.740       1.000
    25        -2.263       1.000
    26        -2.140       1.000
    27        -2.077       1.000
    28        -1.924       0.999
    29        -1.665       0.992
    30        -1.012       0.152
    31        -0.738       0.011
    32         2.445       0.000
    33         2.644       0.000
    34         4.291       0.000
    35         4.583       0.000
    36         5.101       0.000
    37         5.194       0.000
   ...
    39         5.785       0.000
(only showing first 3 out of 121 k-points)

No gap
# Writing to Band/gsq-91.gpw (mode='')

---

timing:  # [seconds]
  Total: 634.745  # ━━━━━━━━━━━━━━━━━━━━━━━━━━━━━━━━━━━━━━━━━━━━━━━━━━━━━━━━━
  Init:   10.727  # ━
  SCF:   623.634  # ━━━━━━━━━━━━━━━━━━━━━━━━━━━━━━━━━━━━━━━━━━━━━━━━━━━━━━━━

Max RSS: 2956.383  # MiB
