#  __  _  _
# | _ |_)|_||  |
# |__||  | ||/\| - 24.1.0

User:   s194113@n-62-28-16
Date:   Fri Apr 26 14:07:38 2024
Arch:   x86_64
Pid:    5951
CWD:    /work3/s194113/10302/10302_NM/NiI2
Python: 3.8.5
gpaw:   /zhome/87/8/147075/venv-name/gpaw/gpaw (10808453a8)
_gpaw:  /zhome/87/8/147075/venv-name/gpaw/
        _gpaw.cpython-38-x86_64-linux-gnu.so (10808453a8)
ase:    /zhome/87/8/147075/venv-name/ase/ase (version 3.23.0b1-c36115a2db)
numpy:  /zhome/87/8/147075/venv-name/lib/python3.8/site-packages/numpy (version 1.24.4)
scipy:  /zhome/87/8/147075/venv-name/lib/python3.8/site-packages/scipy (version 1.10.1)
libxc:  4.3.4
units:  Angstrom and eV
cores: 12
OpenMP: False
OMP_NUM_THREADS: 1

---
input parameters:
  kpts: 
    density: 6.0
    gamma: True
  magmoms: [[1.28782608, 0, 0], [0.19870794, 0, 0], [0.19870794, 0, 0]]
  mixer: 
    backend: 'pulay'
    beta: 0.05
    method: 'sum'
    nmaxold: 5
    weight: 100
  mode: 
    name: 'pw'
    ecut: 600.0
    qspiral: array([0.12403101, 0.12403101, 0.        ])
  parallel: 
    kpt: None
    domain: 1
    band: 1
    order: 'kdb'
    stridebands: False
    augment_grids: False
    sl_auto: False
    sl_default: None
    sl_diagonalize: None
    sl_inverse_cholesky: None
    sl_lcao: None
    sl_lrtddft: None
    use_elpa: False
    elpasolver: '2stage'
    buffer_size: None
    gpu: False
  symmetry: 
    point_group: False
    time_reversal: False
  xc: 
    name: 'LDA'

#                        
#                        
#                        
#                        
#                        
#              I         
#                        
#        Ni              
#          I             
#                        
#                        
#                        
#                        
#                        

atoms: [  # symbols, positions [Ang] and initial magnetic moments
  [ Ni, [   0.000000,    0.000000,    7.513573], [ 1.288,  0.000,  0.000]], # 0
  [  I, [   1.984831,    1.145943,    9.027147], [ 0.199,  0.000,  0.000]], # 1
  [  I, [   0.000000,    2.291885,    6.000000], [ 0.199,  0.000,  0.000]]] # 2

cell: [  # Ang
#     x            y            z
  [   3.969662,    0.000000,    0.000000],
  [  -1.984831,    3.437828,    0.000000],
  [   0.000000,    0.000000,   15.027147]]

periodic: [True      , True      , False     ]
lengths:  [  3.969662,   3.969662,  15.027147]  # Ang
angles:   [ 90.000000,  90.000000, 120.000000]

symmetry:
  number of symmetries: 1
  rotations: [
    [[ 1,  0,  0], [ 0,  1,  0], [ 0,  0,  1]]]

bz sampling:
  number of bz points: 121
  number of ibz points: 121
  monkhorst-pack size: [11, 11, 1]
  monkhorst-pack shift: [0, 0, 0]
  points and weights: [
    [[ -0.45454545,  -0.45454545,   0.00000000], 0.00826446],  # 0
    [[ -0.45454545,  -0.36363636,   0.00000000], 0.00826446],  # 1
    [[ -0.45454545,  -0.27272727,   0.00000000], 0.00826446],  # 2
    [[ -0.45454545,  -0.18181818,   0.00000000], 0.00826446],  # 3
    [[ -0.45454545,  -0.09090909,   0.00000000], 0.00826446],  # 4
    [[ -0.45454545,   0.00000000,   0.00000000], 0.00826446],  # 5
    [[ -0.45454545,   0.09090909,   0.00000000], 0.00826446],  # 6
    [[ -0.45454545,   0.18181818,   0.00000000], 0.00826446],  # 7
    [[ -0.45454545,   0.27272727,   0.00000000], 0.00826446],  # 8
    [[ -0.45454545,   0.36363636,   0.00000000], 0.00826446],  # 9
    # ...
    [[  0.45454545,   0.45454545,   0.00000000], 0.00826446]]  # 120

plane wave coefficients: 6874
cutoff: 600.0 eV

spin-components: 4  # (non-collinear spins)
bands: 40
valence electrons: 30.0
spin-degeneracy: 1
dtype: complex128

memory:
    wave functions: 1_060_928_000  # bytes  (88_410_666 per core)

parallelization:
    kpt:    12
    domain: 1
    band:   1

density:
  components: 4
  grid points: [24 24 90]
  charge: 0.0  # |e|

potential:
  grid points: [24 24 90]

species:
  Ni:
    name: Nickel
    id: 1802175e8de9ea26d9f4394ec1a7d564
    Z: 28.0
    valence: 16
    core: 12
    charge: 0.0
    file: /zhome/86/d/1666/PAW/gpaw-setups-0.9.20000/Ni.LDA.gz
    compensation charges: {type: gauss,
                           rc: 0.36,
                           lmax: 2}
    cutoffs: {filter: 2.14,
              core: 1.98}
    valence states:
      #              energy  rcut
      - 4s(2.00)    -5.858   1.164
      - 3p(6.00)   -71.266   1.207
      - 4p(0.00)    -1.338   1.207
      - 3d(8.00)    -9.141   1.138
      -  s          21.353   1.164
      -  d          18.071   1.138
  
    # Using partial waves for Ni as LCAO basis

  I:
    name: Iodine
    id: b559721c0c096a7b4c8fc0e0f4de5cf4
    Z: 53.0
    valence: 7
    core: 46
    charge: 0.0
    file: /zhome/86/d/1666/PAW/gpaw-setups-0.9.20000/I.LDA.gz
    compensation charges: {type: gauss,
                           rc: 0.37,
                           lmax: 2}
    cutoffs: {filter: 2.06,
              core: 2.90}
    valence states:
      #              energy  rcut
      - 5s(2.00)   -17.626   1.164
      - 5p(5.00)    -7.241   1.164
      -  s           9.585   1.164
      -  p          19.970   1.164
      -  d           0.000   1.164
  
    # Using partial waves for I as LCAO basis

Reference energy: -428067.566327  # eV

eigensolver:
  name: 'Davidson'
  niter: 2
  converge_bands: 'occupied'
Density mixing:
  Method: sum
  Backend: pulay
  Linear mixing parameter: 0.05
  old densities: 5
  Damping of long wavelength oscillations: 100
occupation numbers:
  Fermi-Dirac:
    width: 0.1000  # eV
  

poisson solver:
  ecut: 4800.0  # eV

xc functional:
  name: None

convergence criteria:
- Maximum [total energy] change in last 3 cyles: 0.0005 eV / valence electron
- Maximum integral of absolute [dens]ity change: 0.0001 electrons / valence electron
- Maximum integral of absolute [eigenst]ate change: 4e-08 eV^2 / valence electron
maximum number of iterations: 333

#      iter     time        total  log10-change:
#                          energy   eigst   dens
# iter:   1 14:08:04   -13.718391                  +1.7,+0.0,+0.0
# iter:   2 14:08:20   -12.660643   -0.26  -1.32   +1.4,-0.0,-0.0
# iter:   3 14:08:36   -12.254204   -0.66  -1.46   +1.5,-0.0,-0.0
# iter:   4 14:08:53   -12.327419   -1.34  -1.68   +1.5,-0.0,-0.0
# iter:   5 14:09:09   -12.498557   -1.52  -1.66   +1.5,+0.0,-0.0
# iter:   6 14:09:25   -12.339308   -1.75  -1.82   +1.6,+0.0,+0.0
# iter:   7 14:09:42   -12.323334   -2.06  -2.17   +1.6,+0.0,-0.0
# iter:   8 14:09:58   -12.316238   -2.29  -2.34   +1.6,+0.0,-0.0
# iter:   9 14:10:14   -12.316520c  -2.46  -2.67   +1.6,+0.0,-0.0
# iter:  10 14:10:31   -12.318182c  -2.72  -3.02   +1.6,+0.0,-0.0
# iter:  11 14:10:47   -12.318982c  -2.91  -2.91   +1.6,+0.0,-0.0
# iter:  12 14:11:04   -12.317138c  -3.04  -2.88   +1.6,+0.0,-0.0
# iter:  13 14:11:20   -12.316941c  -3.22  -3.47   +1.6,+0.0,-0.0
# iter:  14 14:11:36   -12.317060c  -3.40  -3.83   +1.6,+0.0,-0.0
# iter:  15 14:11:53   -12.317169c  -3.56  -3.88   +1.6,+0.0,-0.0
# iter:  16 14:12:09   -12.317336c  -3.71  -4.00   +1.6,+0.0,-0.0
# iter:  17 14:12:25   -12.317432c  -3.86  -4.04c  +1.6,+0.0,-0.0
# iter:  18 14:12:42   -12.317454c  -4.00  -4.35c  +1.6,+0.0,-0.0
# iter:  19 14:12:58   -12.317463c  -4.14  -4.37c  +1.6,+0.0,-0.0
# iter:  20 14:13:14   -12.317553c  -4.27  -4.37c  +1.6,+0.0,+0.0
# iter:  21 14:13:31   -12.317661c  -4.41  -4.12c  +1.6,+0.0,+0.0
# iter:  22 14:13:47   -12.317674c  -4.55  -4.39c  +1.6,+0.0,+0.0
# iter:  23 14:14:03   -12.317623c  -4.69  -4.38c  +1.6,+0.0,+0.0
# iter:  24 14:14:20   -12.317780c  -4.81  -4.36c  +1.6,+0.0,+0.0
# iter:  25 14:14:36   -12.317747c  -4.95  -4.22c  +1.6,+0.0,+0.0
# iter:  26 14:14:52   -12.317707c  -5.08  -4.47c  +1.6,+0.0,+0.0
# iter:  27 14:15:09   -12.317752c  -5.23  -4.63c  +1.6,+0.0,+0.0
# iter:  28 14:15:25   -12.317750c  -5.37  -5.35c  +1.6,+0.0,+0.0
# iter:  29 14:15:42   -12.317743c  -5.50  -5.47c  +1.6,+0.0,+0.0
# iter:  30 14:15:58   -12.317744c  -5.64  -5.50c  +1.6,+0.0,+0.0
# iter:  31 14:16:14   -12.317741c  -5.77  -5.58c  +1.6,+0.0,+0.0
# iter:  32 14:16:31   -12.317740c  -5.91  -5.66c  +1.6,+0.0,+0.0
# iter:  33 14:16:47   -12.317739c  -6.05  -5.80c  +1.6,+0.0,+0.0
# iter:  34 14:17:03   -12.317739c  -6.18  -5.79c  +1.6,+0.0,+0.0
# iter:  35 14:17:20   -12.317741c  -6.32  -5.81c  +1.6,+0.0,+0.0
# iter:  36 14:17:36   -12.317741c  -6.46  -6.03c  +1.6,+0.0,+0.0
# iter:  37 14:17:52   -12.317741c  -6.60  -6.07c  +1.6,+0.0,+0.0
# iter:  38 14:18:09   -12.317741c  -6.74  -6.10c  +1.6,+0.0,+0.0
# iter:  39 14:18:25   -12.317740c  -6.88  -6.22c  +1.6,+0.0,+0.0
# iter:  40 14:18:42   -12.317739c  -7.03  -6.33c  +1.6,+0.0,+0.0
# iter:  41 14:18:58   -12.317738c  -7.17  -6.66c  +1.6,+0.0,+0.0
# iter:  42 14:19:15   -12.317737c  -7.32  -6.93c  +1.6,+0.0,+0.0
# iter:  43 14:19:31   -12.317737c  -7.46c -7.09c  +1.6,+0.0,+0.0
scf_steps: 43
energies:  # eV
  coulomb:          -7.692269
  zero:              0.066587
  xc:              -14.907788
  external:          0.000000
  kinetic:          10.234167
  spinorbit:         0.000000
  entropy:          -0.036870
  total:           -12.336172
  extrapolated:    -12.317737

dipole moment: [-3.967930, -6.872020, -4.818104]  # |e|*Ang

total magnetic moment: [1.618348, 0.017463, 0.000000]

local magnetic moments: [
  [ 1.134611, -0.007278,  0.000000],  # Ni 0
  [ 0.102531, -0.102578,  0.000000],  # I  1
  [ 0.102511, -0.102598,  0.000000]]  # I  2


Fermi level: -1.182 eV

kpt = [-0.455, -0.455, 0.000], weight = 0.008:
  Band      eig [eV]   occ [0-1]
     0       -64.959       1.000
   ...
    22        -3.094       1.000
    23        -2.951       1.000
    24        -2.891       1.000
    25        -2.294       1.000
    26        -2.147       1.000
    27        -2.123       1.000
    28        -1.709       0.995
    29        -1.641       0.990
    30        -0.721       0.010
    31        -0.717       0.009
    32         1.599       0.000
    33         2.463       0.000
    34         3.673       0.000
    35         4.577       0.000
    36         4.650       0.000
    37         4.801       0.000
   ...
    39         5.524       0.000

kpt = [-0.455, -0.364, 0.000], weight = 0.008:
  Band      eig [eV]   occ [0-1]
     0       -64.959       1.000
   ...
    22        -3.046       1.000
    23        -2.931       1.000
    24        -2.848       1.000
    25        -2.323       1.000
    26        -2.145       1.000
    27        -2.110       1.000
    28        -1.762       0.997
    29        -1.633       0.989
    30        -0.813       0.024
    31        -0.719       0.010
    32         1.708       0.000
    33         2.605       0.000
    34         3.808       0.000
    35         4.496       0.000
    36         4.638       0.000
    37         4.845       0.000
   ...
    39         5.783       0.000

kpt = [-0.455, -0.273, 0.000], weight = 0.008:
  Band      eig [eV]   occ [0-1]
     0       -64.959       1.000
   ...
    22        -2.996       1.000
    23        -2.913       1.000
    24        -2.761       1.000
    25        -2.327       1.000
    26        -2.144       1.000
    27        -2.106       1.000
    28        -1.811       0.998
    29        -1.618       0.987
    30        -0.944       0.084
    31        -0.742       0.012
    32         2.256       0.000
    33         2.476       0.000
    34         4.326       0.000
    35         4.796       0.000
    36         4.812       0.000
    37         4.846       0.000
   ...
    39         5.641       0.000
(only showing first 3 out of 121 k-points)

Gap: 0.242 eV
Transition (v -> c):
  (s=0, k=60, n=29, [0.00, 0.00, 0.00]) -> (s=0, k=96, n=30, [0.27, 0.27, 0.00])
# Writing to Band/gsq-84.gpw (mode='')

---

timing:  # [seconds]
  Total: 713.553  # ━━━━━━━━━━━━━━━━━━━━━━━━━━━━━━━━━━━━━━━━━━━━━━━━━━━━━━━━━
  Init:   10.709  # ━
  SCF:   702.520  # ━━━━━━━━━━━━━━━━━━━━━━━━━━━━━━━━━━━━━━━━━━━━━━━━━━━━━━━━

Max RSS: 2937.992  # MiB
