#  __  _  _
# | _ |_)|_||  |
# |__||  | ||/\| - 24.1.0

User:   s194113@n-62-29-34
Date:   Wed Apr 24 21:23:51 2024
Arch:   x86_64
Pid:    30340
CWD:    /zhome/87/8/147075/10302/10302_NM/NiI2
Python: 3.8.5
gpaw:   /zhome/87/8/147075/venv-name/gpaw/gpaw (10808453a8)
_gpaw:  /zhome/87/8/147075/venv-name/gpaw/
        _gpaw.cpython-38-x86_64-linux-gnu.so (10808453a8)
ase:    /zhome/87/8/147075/venv-name/ase/ase (version 3.23.0b1-c36115a2db)
numpy:  /zhome/87/8/147075/venv-name/lib/python3.8/site-packages/numpy (version 1.24.4)
scipy:  /zhome/87/8/147075/venv-name/lib/python3.8/site-packages/scipy (version 1.10.1)
libxc:  4.3.4
units:  Angstrom and eV
cores: 12
OpenMP: False
OMP_NUM_THREADS: 1

---
input parameters:
  kpts: 
    density: 6.0
    gamma: True
  magmoms: [[1.28782608, 0, 0], [0.19870794, 0, 0], [0.19870794, 0, 0]]
  mixer: 
    backend: 'pulay'
    beta: 0.05
    method: 'sum'
    nmaxold: 5
    weight: 100
  mode: 
    name: 'pw'
    ecut: 600.0
    qspiral: array([0.01388889, 0.        , 0.        ])
  parallel: 
    kpt: None
    domain: 1
    band: 1
    order: 'kdb'
    stridebands: False
    augment_grids: False
    sl_auto: False
    sl_default: None
    sl_diagonalize: None
    sl_inverse_cholesky: None
    sl_lcao: None
    sl_lrtddft: None
    use_elpa: False
    elpasolver: '2stage'
    buffer_size: None
    gpu: False
  symmetry: 
    point_group: False
    time_reversal: False
  xc: 
    name: 'LDA'

#                        
#                        
#                        
#                        
#                        
#              I         
#                        
#        Ni              
#          I             
#                        
#                        
#                        
#                        
#                        

atoms: [  # symbols, positions [Ang] and initial magnetic moments
  [ Ni, [   0.000000,    0.000000,    7.513573], [ 1.288,  0.000,  0.000]], # 0
  [  I, [   1.984831,    1.145943,    9.027147], [ 0.199,  0.000,  0.000]], # 1
  [  I, [   0.000000,    2.291885,    6.000000], [ 0.199,  0.000,  0.000]]] # 2

cell: [  # Ang
#     x            y            z
  [   3.969662,    0.000000,    0.000000],
  [  -1.984831,    3.437828,    0.000000],
  [   0.000000,    0.000000,   15.027147]]

periodic: [True      , True      , False     ]
lengths:  [  3.969662,   3.969662,  15.027147]  # Ang
angles:   [ 90.000000,  90.000000, 120.000000]

symmetry:
  number of symmetries: 1
  rotations: [
    [[ 1,  0,  0], [ 0,  1,  0], [ 0,  0,  1]]]

bz sampling:
  number of bz points: 121
  number of ibz points: 121
  monkhorst-pack size: [11, 11, 1]
  monkhorst-pack shift: [0, 0, 0]
  points and weights: [
    [[ -0.45454545,  -0.45454545,   0.00000000], 0.00826446],  # 0
    [[ -0.45454545,  -0.36363636,   0.00000000], 0.00826446],  # 1
    [[ -0.45454545,  -0.27272727,   0.00000000], 0.00826446],  # 2
    [[ -0.45454545,  -0.18181818,   0.00000000], 0.00826446],  # 3
    [[ -0.45454545,  -0.09090909,   0.00000000], 0.00826446],  # 4
    [[ -0.45454545,   0.00000000,   0.00000000], 0.00826446],  # 5
    [[ -0.45454545,   0.09090909,   0.00000000], 0.00826446],  # 6
    [[ -0.45454545,   0.18181818,   0.00000000], 0.00826446],  # 7
    [[ -0.45454545,   0.27272727,   0.00000000], 0.00826446],  # 8
    [[ -0.45454545,   0.36363636,   0.00000000], 0.00826446],  # 9
    # ...
    [[  0.45454545,   0.45454545,   0.00000000], 0.00826446]]  # 120

plane wave coefficients: 6874
cutoff: 600.0 eV

spin-components: 4  # (non-collinear spins)
bands: 40
valence electrons: 30.0
spin-degeneracy: 1
dtype: complex128

memory:
    wave functions: 1_060_928_000  # bytes  (88_410_666 per core)

parallelization:
    kpt:    12
    domain: 1
    band:   1

density:
  components: 4
  grid points: [24 24 90]
  charge: 0.0  # |e|

potential:
  grid points: [24 24 90]

species:
  Ni:
    name: Nickel
    id: 1802175e8de9ea26d9f4394ec1a7d564
    Z: 28.0
    valence: 16
    core: 12
    charge: 0.0
    file: /zhome/86/d/1666/PAW/gpaw-setups-0.9.20000/Ni.LDA.gz
    compensation charges: {type: gauss,
                           rc: 0.36,
                           lmax: 2}
    cutoffs: {filter: 2.14,
              core: 1.98}
    valence states:
      #              energy  rcut
      - 4s(2.00)    -5.858   1.164
      - 3p(6.00)   -71.266   1.207
      - 4p(0.00)    -1.338   1.207
      - 3d(8.00)    -9.141   1.138
      -  s          21.353   1.164
      -  d          18.071   1.138
  
    # Using partial waves for Ni as LCAO basis

  I:
    name: Iodine
    id: b559721c0c096a7b4c8fc0e0f4de5cf4
    Z: 53.0
    valence: 7
    core: 46
    charge: 0.0
    file: /zhome/86/d/1666/PAW/gpaw-setups-0.9.20000/I.LDA.gz
    compensation charges: {type: gauss,
                           rc: 0.37,
                           lmax: 2}
    cutoffs: {filter: 2.06,
              core: 2.90}
    valence states:
      #              energy  rcut
      - 5s(2.00)   -17.626   1.164
      - 5p(5.00)    -7.241   1.164
      -  s           9.585   1.164
      -  p          19.970   1.164
      -  d           0.000   1.164
  
    # Using partial waves for I as LCAO basis

Reference energy: -428067.566327  # eV

eigensolver:
  name: 'Davidson'
  niter: 2
  converge_bands: 'occupied'
Density mixing:
  Method: sum
  Backend: pulay
  Linear mixing parameter: 0.05
  old densities: 5
  Damping of long wavelength oscillations: 100
occupation numbers:
  Fermi-Dirac:
    width: 0.1000  # eV
  

poisson solver:
  ecut: 4800.0  # eV

xc functional:
  name: None

convergence criteria:
- Maximum [total energy] change in last 3 cyles: 0.0005 eV / valence electron
- Maximum integral of absolute [dens]ity change: 0.0001 electrons / valence electron
- Maximum integral of absolute [eigenst]ate change: 4e-08 eV^2 / valence electron
maximum number of iterations: 333

#      iter     time        total  log10-change:
#                          energy   eigst   dens
# iter:   1 21:24:17   -13.881238                  +1.7,+0.0,+0.0
# iter:   2 21:24:34   -12.661975   -0.54  -1.32   +1.5,-0.0,-0.0
# iter:   3 21:24:50   -12.236983   -0.74  -1.46   +1.5,-0.0,-0.0
# iter:   4 21:25:07   -12.292746   -1.28  -1.68   +1.6,-0.0,-0.0
# iter:   5 21:25:23   -12.498599   -1.45  -1.66   +1.6,+0.0,-0.0
# iter:   6 21:25:40   -12.304707   -1.69  -1.78   +1.7,+0.0,+0.0
# iter:   7 21:25:57   -12.285916   -2.00  -2.16   +1.7,+0.0,-0.0
# iter:   8 21:26:13   -12.303415   -2.26  -2.35   +1.7,+0.0,-0.0
# iter:   9 21:26:30   -12.285493   -2.38  -2.25   +1.8,+0.0,+0.0
# iter:  10 21:26:46   -12.286055   -2.70  -2.88   +1.8,+0.0,-0.0
# iter:  11 21:27:03   -12.285985c  -2.93  -3.05   +1.8,+0.0,-0.0
# iter:  12 21:27:19   -12.288672c  -3.10  -3.00   +1.8,+0.0,-0.0
# iter:  13 21:27:36   -12.288551c  -3.32  -3.40   +1.8,+0.0,-0.0
# iter:  14 21:27:52   -12.288490c  -3.50  -3.52   +1.8,+0.0,-0.0
# iter:  15 21:28:08   -12.288870c  -3.66  -3.58   +1.8,+0.0,-0.0
# iter:  16 21:28:25   -12.288976c  -3.83  -3.79   +1.8,+0.0,-0.0
# iter:  17 21:28:41   -12.289124c  -4.00  -3.89   +1.8,+0.0,-0.0
# iter:  18 21:28:58   -12.289231c  -4.18  -3.97   +1.8,+0.0,-0.0
# iter:  19 21:29:14   -12.289372c  -4.36  -4.03c  +1.8,+0.0,-0.0
# iter:  20 21:29:30   -12.289433c  -4.54  -4.15c  +1.8,+0.0,-0.0
# iter:  21 21:29:47   -12.289462c  -4.72  -4.20c  +1.8,+0.0,-0.0
# iter:  22 21:30:03   -12.289574c  -4.89  -4.20c  +1.8,+0.0,-0.0
# iter:  23 21:30:19   -12.289643c  -5.06  -4.26c  +1.8,+0.0,-0.0
# iter:  24 21:30:36   -12.289652c  -5.23  -4.36c  +1.8,+0.0,-0.0
# iter:  25 21:30:52   -12.289655c  -5.42  -4.37c  +1.8,+0.0,-0.0
# iter:  26 21:31:09   -12.289721c  -5.58  -4.41c  +1.8,+0.0,-0.0
# iter:  27 21:31:25   -12.289868c  -5.70  -4.60c  +1.8,+0.0,-0.0
# iter:  28 21:31:41   -12.289871c  -5.94  -4.73c  +1.8,+0.0,-0.0
# iter:  29 21:31:58   -12.289877c  -6.12  -4.65c  +1.8,+0.0,-0.0
# iter:  30 21:32:14   -12.289881c  -6.29  -4.81c  +1.8,+0.0,-0.0
# iter:  31 21:32:31   -12.289883c  -6.46  -4.90c  +1.8,+0.0,-0.0
# iter:  32 21:32:47   -12.289911c  -6.59  -4.93c  +1.8,+0.0,-0.0
# iter:  33 21:33:04   -12.289917c  -6.80  -5.17c  +1.8,+0.0,-0.0
# iter:  34 21:33:20   -12.289919c  -6.96  -5.55c  +1.8,+0.0,-0.0
# iter:  35 21:33:37   -12.289919c  -7.13  -5.90c  +1.8,+0.0,-0.0
# iter:  36 21:33:53   -12.289915c  -7.29  -5.94c  +1.8,+0.0,-0.0
# iter:  37 21:34:09   -12.289915c  -7.45c -6.10c  +1.8,+0.0,-0.0
scf_steps: 37
energies:  # eV
  coulomb:          -8.102223
  zero:              0.066027
  xc:              -14.964565
  external:          0.000000
  kinetic:          10.737839
  spinorbit:         0.000000
  entropy:          -0.053986
  total:           -12.316908
  extrapolated:    -12.289915

dipole moment: [-4.169377, -7.220183, -6.427564]  # |e|*Ang

total magnetic moment: [1.818656, 0.001375, -0.000000]

local magnetic moments: [
  [ 1.147352, -0.000527, -0.000000],  # Ni 0
  [ 0.183297, -0.010761, -0.000000],  # I  1
  [ 0.183532, -0.005424, -0.000000]]  # I  2


Fermi level: -1.182 eV

kpt = [-0.455, -0.455, 0.000], weight = 0.008:
  Band      eig [eV]   occ [0-1]
     0       -64.978       1.000
   ...
    22        -3.135       1.000
    23        -3.009       1.000
    24        -2.901       1.000
    25        -2.293       1.000
    26        -2.163       1.000
    27        -2.130       1.000
    28        -1.614       0.987
    29        -1.572       0.980
    30        -0.676       0.006
    31        -0.667       0.006
    32         1.716       0.000
    33         1.954       0.000
    34         3.951       0.000
    35         4.123       0.000
    36         4.620       0.000
    37         4.686       0.000
   ...
    39         4.833       0.000

kpt = [-0.455, -0.364, 0.000], weight = 0.008:
  Band      eig [eV]   occ [0-1]
     0       -64.978       1.000
   ...
    22        -3.074       1.000
    23        -2.947       1.000
    24        -2.790       1.000
    25        -2.243       1.000
    26        -2.138       1.000
    27        -2.039       1.000
    28        -1.912       0.999
    29        -1.656       0.991
    30        -0.941       0.083
    31        -0.706       0.009
    32         2.247       0.000
    33         2.477       0.000
    34         4.474       0.000
    35         4.610       0.000
    36         4.939       0.000
    37         5.075       0.000
   ...
    39         5.386       0.000

kpt = [-0.455, -0.273, 0.000], weight = 0.008:
  Band      eig [eV]   occ [0-1]
     0       -64.978       1.000
   ...
    22        -3.061       1.000
    23        -2.917       1.000
    24        -2.732       1.000
    25        -2.234       1.000
    26        -2.128       1.000
    27        -2.063       1.000
    28        -1.989       1.000
    29        -1.687       0.994
    30        -1.052       0.215
    31        -0.731       0.011
    32         2.529       0.000
    33         2.754       0.000
    34         4.260       0.000
    35         4.407       0.000
    36         5.349       0.000
    37         5.489       0.000
   ...
    39         5.969       0.000
(only showing first 3 out of 121 k-points)

No gap
# Writing to Band/gsq-01.gpw (mode='')

---

timing:  # [seconds]
  Total: 619.048  # ━━━━━━━━━━━━━━━━━━━━━━━━━━━━━━━━━━━━━━━━━━━━━━━━━━━━━━━━━
  Init:   10.713  # ━
  SCF:   607.794  # ━━━━━━━━━━━━━━━━━━━━━━━━━━━━━━━━━━━━━━━━━━━━━━━━━━━━━━━━

Max RSS: 411.180  # MiB
