#  __  _  _
# | _ |_)|_||  |
# |__||  | ||/\| - 24.1.0

User:   s194113@n-62-28-16
Date:   Fri Apr 26 04:54:55 2024
Arch:   x86_64
Pid:    5951
CWD:    /work3/s194113/10302/10302_NM/NiI2
Python: 3.8.5
gpaw:   /zhome/87/8/147075/venv-name/gpaw/gpaw (10808453a8)
_gpaw:  /zhome/87/8/147075/venv-name/gpaw/
        _gpaw.cpython-38-x86_64-linux-gnu.so (10808453a8)
ase:    /zhome/87/8/147075/venv-name/ase/ase (version 3.23.0b1-c36115a2db)
numpy:  /zhome/87/8/147075/venv-name/lib/python3.8/site-packages/numpy (version 1.24.4)
scipy:  /zhome/87/8/147075/venv-name/lib/python3.8/site-packages/scipy (version 1.10.1)
libxc:  4.3.4
units:  Angstrom and eV
cores: 12
OpenMP: False
OMP_NUM_THREADS: 1

---
input parameters:
  kpts: 
    density: 6.0
    gamma: True
  magmoms: [[1.28782608, 0, 0], [0.19870794, 0, 0], [0.19870794, 0, 0]]
  mixer: 
    backend: 'pulay'
    beta: 0.05
    method: 'sum'
    nmaxold: 5
    weight: 100
  mode: 
    name: 'pw'
    ecut: 600.0
    qspiral: array([0.43650794, 0.12698413, 0.        ])
  parallel: 
    kpt: None
    domain: 1
    band: 1
    order: 'kdb'
    stridebands: False
    augment_grids: False
    sl_auto: False
    sl_default: None
    sl_diagonalize: None
    sl_inverse_cholesky: None
    sl_lcao: None
    sl_lrtddft: None
    use_elpa: False
    elpasolver: '2stage'
    buffer_size: None
    gpu: False
  symmetry: 
    point_group: False
    time_reversal: False
  xc: 
    name: 'LDA'

#                        
#                        
#                        
#                        
#                        
#              I         
#                        
#        Ni              
#          I             
#                        
#                        
#                        
#                        
#                        

atoms: [  # symbols, positions [Ang] and initial magnetic moments
  [ Ni, [   0.000000,    0.000000,    7.513573], [ 1.288,  0.000,  0.000]], # 0
  [  I, [   1.984831,    1.145943,    9.027147], [ 0.199,  0.000,  0.000]], # 1
  [  I, [   0.000000,    2.291885,    6.000000], [ 0.199,  0.000,  0.000]]] # 2

cell: [  # Ang
#     x            y            z
  [   3.969662,    0.000000,    0.000000],
  [  -1.984831,    3.437828,    0.000000],
  [   0.000000,    0.000000,   15.027147]]

periodic: [True      , True      , False     ]
lengths:  [  3.969662,   3.969662,  15.027147]  # Ang
angles:   [ 90.000000,  90.000000, 120.000000]

symmetry:
  number of symmetries: 1
  rotations: [
    [[ 1,  0,  0], [ 0,  1,  0], [ 0,  0,  1]]]

bz sampling:
  number of bz points: 121
  number of ibz points: 121
  monkhorst-pack size: [11, 11, 1]
  monkhorst-pack shift: [0, 0, 0]
  points and weights: [
    [[ -0.45454545,  -0.45454545,   0.00000000], 0.00826446],  # 0
    [[ -0.45454545,  -0.36363636,   0.00000000], 0.00826446],  # 1
    [[ -0.45454545,  -0.27272727,   0.00000000], 0.00826446],  # 2
    [[ -0.45454545,  -0.18181818,   0.00000000], 0.00826446],  # 3
    [[ -0.45454545,  -0.09090909,   0.00000000], 0.00826446],  # 4
    [[ -0.45454545,   0.00000000,   0.00000000], 0.00826446],  # 5
    [[ -0.45454545,   0.09090909,   0.00000000], 0.00826446],  # 6
    [[ -0.45454545,   0.18181818,   0.00000000], 0.00826446],  # 7
    [[ -0.45454545,   0.27272727,   0.00000000], 0.00826446],  # 8
    [[ -0.45454545,   0.36363636,   0.00000000], 0.00826446],  # 9
    # ...
    [[  0.45454545,   0.45454545,   0.00000000], 0.00826446]]  # 120

plane wave coefficients: 6874
cutoff: 600.0 eV

spin-components: 4  # (non-collinear spins)
bands: 40
valence electrons: 30.0
spin-degeneracy: 1
dtype: complex128

memory:
    wave functions: 1_060_928_000  # bytes  (88_410_666 per core)

parallelization:
    kpt:    12
    domain: 1
    band:   1

density:
  components: 4
  grid points: [24 24 90]
  charge: 0.0  # |e|

potential:
  grid points: [24 24 90]

species:
  Ni:
    name: Nickel
    id: 1802175e8de9ea26d9f4394ec1a7d564
    Z: 28.0
    valence: 16
    core: 12
    charge: 0.0
    file: /zhome/86/d/1666/PAW/gpaw-setups-0.9.20000/Ni.LDA.gz
    compensation charges: {type: gauss,
                           rc: 0.36,
                           lmax: 2}
    cutoffs: {filter: 2.14,
              core: 1.98}
    valence states:
      #              energy  rcut
      - 4s(2.00)    -5.858   1.164
      - 3p(6.00)   -71.266   1.207
      - 4p(0.00)    -1.338   1.207
      - 3d(8.00)    -9.141   1.138
      -  s          21.353   1.164
      -  d          18.071   1.138
  
    # Using partial waves for Ni as LCAO basis

  I:
    name: Iodine
    id: b559721c0c096a7b4c8fc0e0f4de5cf4
    Z: 53.0
    valence: 7
    core: 46
    charge: 0.0
    file: /zhome/86/d/1666/PAW/gpaw-setups-0.9.20000/I.LDA.gz
    compensation charges: {type: gauss,
                           rc: 0.37,
                           lmax: 2}
    cutoffs: {filter: 2.06,
              core: 2.90}
    valence states:
      #              energy  rcut
      - 5s(2.00)   -17.626   1.164
      - 5p(5.00)    -7.241   1.164
      -  s           9.585   1.164
      -  p          19.970   1.164
      -  d           0.000   1.164
  
    # Using partial waves for I as LCAO basis

Reference energy: -428067.566327  # eV

eigensolver:
  name: 'Davidson'
  niter: 2
  converge_bands: 'occupied'
Density mixing:
  Method: sum
  Backend: pulay
  Linear mixing parameter: 0.05
  old densities: 5
  Damping of long wavelength oscillations: 100
occupation numbers:
  Fermi-Dirac:
    width: 0.1000  # eV
  

poisson solver:
  ecut: 4800.0  # eV

xc functional:
  name: None

convergence criteria:
- Maximum [total energy] change in last 3 cyles: 0.0005 eV / valence electron
- Maximum integral of absolute [dens]ity change: 0.0001 electrons / valence electron
- Maximum integral of absolute [eigenst]ate change: 4e-08 eV^2 / valence electron
maximum number of iterations: 333

#      iter     time        total  log10-change:
#                          energy   eigst   dens
# iter:   1 04:55:22   -12.841435                  +1.7,+0.0,+0.0
# iter:   2 04:55:39   -12.440110   +0.35  -1.31   +1.1,-0.0,-0.0
# iter:   3 04:55:55   -12.167889   -0.30  -1.45   +1.0,-0.0,+0.0
# iter:   4 04:56:12   -12.222248   -0.85  -1.68   +1.0,-0.0,+0.0
# iter:   5 04:56:29   -12.555944   -1.01  -1.67   +1.0,-0.0,-0.0
# iter:   6 04:56:46   -12.260766   -1.24  -1.70   +1.0,-0.0,-0.0
# iter:   7 04:57:02   -12.269161   -1.51  -2.25   +1.0,+0.0,+0.0
# iter:   8 04:57:19   -12.259549c  -1.67  -2.32   +1.0,+0.0,-0.0
# iter:   9 04:57:36   -12.261199c  -1.83  -2.69   +1.1,+0.0,-0.0
# iter:  10 04:57:52   -12.262097c  -2.00  -3.04   +1.1,+0.0,-0.0
# iter:  11 04:58:09   -12.263273c  -2.13  -3.06   +1.1,+0.0,-0.0
# iter:  12 04:58:25   -12.264109c  -2.29  -2.94   +1.1,+0.0,-0.0
# iter:  13 04:58:42   -12.264712c  -2.42  -3.58   +1.1,+0.0,-0.0
# iter:  14 04:58:58   -12.264675c  -2.56  -3.59   +1.1,+0.0,+0.0
# iter:  15 04:59:15   -12.265065c  -2.69  -3.75   +1.1,+0.0,-0.0
# iter:  16 04:59:32   -12.265219c  -2.82  -3.91   +1.1,+0.0,+0.0
# iter:  17 04:59:48   -12.265369c  -2.95  -3.91   +1.1,+0.0,+0.0
# iter:  18 05:00:05   -12.265751c  -3.08  -3.94   +1.1,+0.0,-0.0
# iter:  19 05:00:21   -12.265755c  -3.21  -4.02c  +1.1,+0.0,-0.0
# iter:  20 05:00:38   -12.265864c  -3.34  -4.07c  +1.1,+0.0,-0.0
# iter:  21 05:00:55   -12.266389c  -3.47  -4.22c  +1.1,+0.0,-0.0
# iter:  22 05:01:11   -12.266386c  -3.59  -4.57c  +1.1,+0.0,-0.0
# iter:  23 05:01:28   -12.266404c  -3.72  -4.67c  +1.1,+0.0,-0.0
# iter:  24 05:01:44   -12.266409c  -3.86  -4.67c  +1.1,+0.0,-0.0
# iter:  25 05:02:01   -12.266411c  -3.98  -4.66c  +1.1,+0.0,-0.0
# iter:  26 05:02:17   -12.266421c  -4.11  -4.65c  +1.1,+0.0,-0.0
# iter:  27 05:02:34   -12.266397c  -4.24  -4.65c  +1.1,+0.0,-0.0
# iter:  28 05:02:50   -12.266365c  -4.37  -4.66c  +1.1,+0.0,-0.0
# iter:  29 05:03:07   -12.266377c  -4.50  -4.66c  +1.1,+0.0,-0.0
# iter:  30 05:03:23   -12.266445c  -4.64  -4.65c  +1.1,+0.0,-0.0
# iter:  31 05:03:40   -12.266495c  -4.77  -4.68c  +1.1,+0.0,-0.0
# iter:  32 05:03:56   -12.266518c  -4.90  -4.72c  +1.1,+0.0,-0.0
# iter:  33 05:04:13   -12.266506c  -5.03  -4.88c  +1.1,+0.0,+0.0
# iter:  34 05:04:30   -12.266521c  -5.16  -5.01c  +1.1,+0.0,+0.0
# iter:  35 05:04:46   -12.266530c  -5.30  -5.07c  +1.1,+0.0,+0.0
# iter:  36 05:05:03   -12.266520c  -5.43  -5.13c  +1.1,+0.0,+0.0
# iter:  37 05:05:19   -12.266521c  -5.57  -5.20c  +1.1,+0.0,+0.0
# iter:  38 05:05:36   -12.266526c  -5.71  -5.36c  +1.1,+0.0,+0.0
# iter:  39 05:05:52   -12.266542c  -5.85  -5.43c  +1.1,+0.0,+0.0
# iter:  40 05:06:09   -12.266548c  -5.98  -5.66c  +1.1,+0.0,+0.0
# iter:  41 05:06:26   -12.266551c  -6.12  -5.81c  +1.1,+0.0,+0.0
# iter:  42 05:06:42   -12.266554c  -6.25  -5.85c  +1.1,+0.0,+0.0
# iter:  43 05:06:59   -12.266555c  -6.39  -5.92c  +1.1,+0.0,-0.0
# iter:  44 05:07:16   -12.266554c  -6.53  -6.00c  +1.1,+0.0,+0.0
# iter:  45 05:07:32   -12.266553c  -6.67  -6.20c  +1.1,+0.0,+0.0
# iter:  46 05:07:49   -12.266555c  -6.81  -6.25c  +1.1,+0.0,+0.0
# iter:  47 05:08:06   -12.266556c  -6.95  -6.47c  +1.1,+0.0,+0.0
# iter:  48 05:08:23   -12.266556c  -7.09  -6.58c  +1.1,+0.0,+0.0
# iter:  49 05:08:40   -12.266556c  -7.23  -6.72c  +1.1,+0.0,+0.0
# iter:  50 05:08:56   -12.266556c  -7.37  -6.75c  +1.1,+0.0,+0.0
# iter:  51 05:09:13   -12.266556c  -7.51c -6.87c  +1.1,+0.0,+0.0
scf_steps: 51
energies:  # eV
  coulomb:          -7.937381
  zero:              0.066401
  xc:              -14.900981
  external:          0.000000
  kinetic:          10.535327
  spinorbit:         0.000000
  entropy:          -0.059843
  total:           -12.296477
  extrapolated:    -12.266556

dipole moment: [-3.363333, -6.056158, -0.704754]  # |e|*Ang

total magnetic moment: [1.118413, 0.001985, 0.000000]

local magnetic moments: [
  [ 1.112493, -0.000668,  0.000000],  # Ni 0
  [-0.049382,  0.000034,  0.000000],  # I  1
  [ 0.045493, -0.019206,  0.000000]]  # I  2


Fermi level: -1.201 eV

kpt = [-0.455, -0.455, 0.000], weight = 0.008:
  Band      eig [eV]   occ [0-1]
     0       -64.951       1.000
   ...
    22        -3.016       1.000
    23        -2.887       1.000
    24        -2.734       1.000
    25        -2.317       1.000
    26        -2.163       1.000
    27        -2.100       1.000
    28        -1.872       0.999
    29        -1.660       0.990
    30        -1.012       0.132
    31        -0.797       0.017
    32         2.410       0.000
    33         2.557       0.000
    34         4.371       0.000
    35         4.741       0.000
    36         4.919       0.000
    37         5.096       0.000
   ...
    39         5.662       0.000

kpt = [-0.455, -0.364, 0.000], weight = 0.008:
  Band      eig [eV]   occ [0-1]
     0       -64.951       1.000
   ...
    22        -2.930       1.000
    23        -2.903       1.000
    24        -2.744       1.000
    25        -2.410       1.000
    26        -2.149       1.000
    27        -2.105       1.000
    28        -1.767       0.997
    29        -1.570       0.976
    30        -0.964       0.086
    31        -0.742       0.010
    32         2.125       0.000
    33         2.605       0.000
    34         4.098       0.000
    35         4.326       0.000
    36         4.547       0.000
    37         5.017       0.000
   ...
    39         5.564       0.000

kpt = [-0.455, -0.273, 0.000], weight = 0.008:
  Band      eig [eV]   occ [0-1]
     0       -64.951       1.000
   ...
    22        -2.969       1.000
    23        -2.834       1.000
    24        -2.674       1.000
    25        -2.456       1.000
    26        -2.136       1.000
    27        -2.060       1.000
    28        -1.771       0.997
    29        -1.445       0.920
    30        -1.029       0.152
    31        -0.643       0.004
    32         2.043       0.000
    33         2.760       0.000
    34         3.784       0.000
    35         4.061       0.000
    36         4.377       0.000
    37         4.873       0.000
   ...
    39         5.727       0.000
(only showing first 3 out of 121 k-points)

Gap: 0.191 eV
Transition (v -> c):
  (s=0, k=27, n=29, [-0.27, 0.00, 0.00]) -> (s=0, k=63, n=30, [0.00, 0.27, 0.00])
# Writing to Band/gsq-44.gpw (mode='')

---

timing:  # [seconds]
  Total: 2381.999  # ━━━━━━━━━━━━━━━━━━━━━━━━━━━━━━━━━━━━━━━━━━━━━━━━━━━━━━━━
  Init:    10.738  # ╸
  SCF:    847.005  # ━━━━━━━━━━━━━━━━━━━━

Max RSS: 1949.875  # MiB
