#  __  _  _
# | _ |_)|_||  |
# |__||  | ||/\| - 24.1.0

User:   s194113@n-62-28-16
Date:   Fri Apr 26 04:40:40 2024
Arch:   x86_64
Pid:    5951
CWD:    /work3/s194113/10302/10302_NM/NiI2
Python: 3.8.5
gpaw:   /zhome/87/8/147075/venv-name/gpaw/gpaw (10808453a8)
_gpaw:  /zhome/87/8/147075/venv-name/gpaw/
        _gpaw.cpython-38-x86_64-linux-gnu.so (10808453a8)
ase:    /zhome/87/8/147075/venv-name/ase/ase (version 3.23.0b1-c36115a2db)
numpy:  /zhome/87/8/147075/venv-name/lib/python3.8/site-packages/numpy (version 1.24.4)
scipy:  /zhome/87/8/147075/venv-name/lib/python3.8/site-packages/scipy (version 1.10.1)
libxc:  4.3.4
units:  Angstrom and eV
cores: 12
OpenMP: False
OMP_NUM_THREADS: 1

---
input parameters:
  kpts: 
    density: 6.0
    gamma: True
  magmoms: [[1.28782608, 0, 0], [0.19870794, 0, 0], [0.19870794, 0, 0]]
  mixer: 
    backend: 'pulay'
    beta: 0.05
    method: 'sum'
    nmaxold: 5
    weight: 100
  mode: 
    name: 'pw'
    ecut: 600.0
    qspiral: array([0.44444444, 0.11111111, 0.        ])
  parallel: 
    kpt: None
    domain: 1
    band: 1
    order: 'kdb'
    stridebands: False
    augment_grids: False
    sl_auto: False
    sl_default: None
    sl_diagonalize: None
    sl_inverse_cholesky: None
    sl_lcao: None
    sl_lrtddft: None
    use_elpa: False
    elpasolver: '2stage'
    buffer_size: None
    gpu: False
  symmetry: 
    point_group: False
    time_reversal: False
  xc: 
    name: 'LDA'

#                        
#                        
#                        
#                        
#                        
#              I         
#                        
#        Ni              
#          I             
#                        
#                        
#                        
#                        
#                        

atoms: [  # symbols, positions [Ang] and initial magnetic moments
  [ Ni, [   0.000000,    0.000000,    7.513573], [ 1.288,  0.000,  0.000]], # 0
  [  I, [   1.984831,    1.145943,    9.027147], [ 0.199,  0.000,  0.000]], # 1
  [  I, [   0.000000,    2.291885,    6.000000], [ 0.199,  0.000,  0.000]]] # 2

cell: [  # Ang
#     x            y            z
  [   3.969662,    0.000000,    0.000000],
  [  -1.984831,    3.437828,    0.000000],
  [   0.000000,    0.000000,   15.027147]]

periodic: [True      , True      , False     ]
lengths:  [  3.969662,   3.969662,  15.027147]  # Ang
angles:   [ 90.000000,  90.000000, 120.000000]

symmetry:
  number of symmetries: 1
  rotations: [
    [[ 1,  0,  0], [ 0,  1,  0], [ 0,  0,  1]]]

bz sampling:
  number of bz points: 121
  number of ibz points: 121
  monkhorst-pack size: [11, 11, 1]
  monkhorst-pack shift: [0, 0, 0]
  points and weights: [
    [[ -0.45454545,  -0.45454545,   0.00000000], 0.00826446],  # 0
    [[ -0.45454545,  -0.36363636,   0.00000000], 0.00826446],  # 1
    [[ -0.45454545,  -0.27272727,   0.00000000], 0.00826446],  # 2
    [[ -0.45454545,  -0.18181818,   0.00000000], 0.00826446],  # 3
    [[ -0.45454545,  -0.09090909,   0.00000000], 0.00826446],  # 4
    [[ -0.45454545,   0.00000000,   0.00000000], 0.00826446],  # 5
    [[ -0.45454545,   0.09090909,   0.00000000], 0.00826446],  # 6
    [[ -0.45454545,   0.18181818,   0.00000000], 0.00826446],  # 7
    [[ -0.45454545,   0.27272727,   0.00000000], 0.00826446],  # 8
    [[ -0.45454545,   0.36363636,   0.00000000], 0.00826446],  # 9
    # ...
    [[  0.45454545,   0.45454545,   0.00000000], 0.00826446]]  # 120

plane wave coefficients: 6874
cutoff: 600.0 eV

spin-components: 4  # (non-collinear spins)
bands: 40
valence electrons: 30.0
spin-degeneracy: 1
dtype: complex128

memory:
    wave functions: 1_060_928_000  # bytes  (88_410_666 per core)

parallelization:
    kpt:    12
    domain: 1
    band:   1

density:
  components: 4
  grid points: [24 24 90]
  charge: 0.0  # |e|

potential:
  grid points: [24 24 90]

species:
  Ni:
    name: Nickel
    id: 1802175e8de9ea26d9f4394ec1a7d564
    Z: 28.0
    valence: 16
    core: 12
    charge: 0.0
    file: /zhome/86/d/1666/PAW/gpaw-setups-0.9.20000/Ni.LDA.gz
    compensation charges: {type: gauss,
                           rc: 0.36,
                           lmax: 2}
    cutoffs: {filter: 2.14,
              core: 1.98}
    valence states:
      #              energy  rcut
      - 4s(2.00)    -5.858   1.164
      - 3p(6.00)   -71.266   1.207
      - 4p(0.00)    -1.338   1.207
      - 3d(8.00)    -9.141   1.138
      -  s          21.353   1.164
      -  d          18.071   1.138
  
    # Using partial waves for Ni as LCAO basis

  I:
    name: Iodine
    id: b559721c0c096a7b4c8fc0e0f4de5cf4
    Z: 53.0
    valence: 7
    core: 46
    charge: 0.0
    file: /zhome/86/d/1666/PAW/gpaw-setups-0.9.20000/I.LDA.gz
    compensation charges: {type: gauss,
                           rc: 0.37,
                           lmax: 2}
    cutoffs: {filter: 2.06,
              core: 2.90}
    valence states:
      #              energy  rcut
      - 5s(2.00)   -17.626   1.164
      - 5p(5.00)    -7.241   1.164
      -  s           9.585   1.164
      -  p          19.970   1.164
      -  d           0.000   1.164
  
    # Using partial waves for I as LCAO basis

Reference energy: -428067.566327  # eV

eigensolver:
  name: 'Davidson'
  niter: 2
  converge_bands: 'occupied'
Density mixing:
  Method: sum
  Backend: pulay
  Linear mixing parameter: 0.05
  old densities: 5
  Damping of long wavelength oscillations: 100
occupation numbers:
  Fermi-Dirac:
    width: 0.1000  # eV
  

poisson solver:
  ecut: 4800.0  # eV

xc functional:
  name: None

convergence criteria:
- Maximum [total energy] change in last 3 cyles: 0.0005 eV / valence electron
- Maximum integral of absolute [dens]ity change: 0.0001 electrons / valence electron
- Maximum integral of absolute [eigenst]ate change: 4e-08 eV^2 / valence electron
maximum number of iterations: 333

#      iter     time        total  log10-change:
#                          energy   eigst   dens
# iter:   1 04:41:07   -12.852537                  +1.7,+0.0,+0.0
# iter:   2 04:41:24   -12.440269   +0.35  -1.31   +1.1,-0.0,-0.0
# iter:   3 04:41:41   -12.165574   -0.30  -1.45   +1.0,-0.0,-0.0
# iter:   4 04:41:58   -12.220717   -0.85  -1.68   +1.0,-0.0,-0.0
# iter:   5 04:42:15   -12.553255   -1.02  -1.67   +1.0,-0.0,+0.0
# iter:   6 04:42:33   -12.256299   -1.24  -1.70   +1.0,-0.0,-0.0
# iter:   7 04:42:49   -12.264589   -1.52  -2.25   +1.0,+0.0,-0.0
# iter:   8 04:43:07   -12.255906c  -1.68  -2.33   +1.0,+0.0,-0.0
# iter:   9 04:43:24   -12.257451c  -1.83  -2.67   +1.1,+0.0,+0.0
# iter:  10 04:43:41   -12.258423c  -2.00  -3.05   +1.1,+0.0,+0.0
# iter:  11 04:43:58   -12.259162c  -2.13  -3.05   +1.1,+0.0,+0.0
# iter:  12 04:44:14   -12.260447c  -2.29  -2.92   +1.1,+0.0,+0.0
# iter:  13 04:44:31   -12.261108c  -2.42  -3.51   +1.1,+0.0,+0.0
# iter:  14 04:44:48   -12.261111c  -2.56  -3.57   +1.1,+0.0,+0.0
# iter:  15 04:45:05   -12.261623c  -2.70  -3.82   +1.1,+0.0,+0.0
# iter:  16 04:45:22   -12.261647c  -2.83  -3.81   +1.1,+0.0,+0.0
# iter:  17 04:45:39   -12.261721c  -2.96  -3.89   +1.1,+0.0,+0.0
# iter:  18 04:45:56   -12.262581c  -3.08  -3.93   +1.1,+0.0,+0.0
# iter:  19 04:46:13   -12.262518c  -3.21  -4.10c  +1.1,+0.0,-0.0
# iter:  20 04:46:30   -12.262569c  -3.35  -4.22c  +1.1,+0.0,-0.0
# iter:  21 04:46:47   -12.262836c  -3.48  -4.28c  +1.1,+0.0,-0.0
# iter:  22 04:47:04   -12.262822c  -3.61  -4.47c  +1.1,+0.0,-0.0
# iter:  23 04:47:21   -12.262890c  -3.74  -4.58c  +1.1,+0.0,-0.0
# iter:  24 04:47:38   -12.262930c  -3.87  -4.68c  +1.1,+0.0,-0.0
# iter:  25 04:47:55   -12.262958c  -4.01  -4.77c  +1.1,+0.0,-0.0
# iter:  26 04:48:12   -12.262951c  -4.14  -4.86c  +1.1,+0.0,-0.0
# iter:  27 04:48:29   -12.262961c  -4.27  -4.94c  +1.1,+0.0,-0.0
# iter:  28 04:48:46   -12.262976c  -4.41  -4.96c  +1.1,+0.0,-0.0
# iter:  29 04:49:03   -12.262985c  -4.54  -5.01c  +1.1,+0.0,-0.0
# iter:  30 04:49:20   -12.262980c  -4.68  -5.22c  +1.1,+0.0,-0.0
# iter:  31 04:49:37   -12.262995c  -4.82  -5.18c  +1.1,+0.0,-0.0
# iter:  32 04:49:53   -12.262997c  -4.95  -5.21c  +1.1,+0.0,-0.0
# iter:  33 04:50:10   -12.262983c  -5.09  -5.21c  +1.1,+0.0,-0.0
# iter:  34 04:50:27   -12.262993c  -5.22  -5.12c  +1.1,+0.0,-0.0
# iter:  35 04:50:44   -12.262995c  -5.36  -5.19c  +1.1,+0.0,-0.0
# iter:  36 04:51:01   -12.263016c  -5.50  -5.19c  +1.1,+0.0,-0.0
# iter:  37 04:51:18   -12.263004c  -5.63  -5.18c  +1.1,+0.0,-0.0
# iter:  38 04:51:35   -12.263017c  -5.77  -5.15c  +1.1,+0.0,-0.0
# iter:  39 04:51:51   -12.263034c  -5.91  -5.21c  +1.1,+0.0,+0.0
# iter:  40 04:52:08   -12.263036c  -6.05  -5.30c  +1.1,+0.0,+0.0
# iter:  41 04:52:25   -12.263053c  -6.19  -5.56c  +1.1,+0.0,+0.0
# iter:  42 04:52:42   -12.263055c  -6.33  -5.78c  +1.1,+0.0,+0.0
# iter:  43 04:52:58   -12.263060c  -6.46  -5.82c  +1.1,+0.0,+0.0
# iter:  44 04:53:15   -12.263059c  -6.59  -5.97c  +1.1,+0.0,+0.0
# iter:  45 04:53:32   -12.263059c  -6.73  -6.04c  +1.1,+0.0,+0.0
# iter:  46 04:53:48   -12.263058c  -6.88  -6.16c  +1.1,+0.0,+0.0
# iter:  47 04:54:05   -12.263058c  -7.02  -6.35c  +1.1,+0.0,+0.0
# iter:  48 04:54:22   -12.263059c  -7.16  -6.46c  +1.1,+0.0,+0.0
# iter:  49 04:54:39   -12.263059c  -7.30  -6.59c  +1.1,+0.0,+0.0
# iter:  50 04:54:55   -12.263059c  -7.44c -6.66c  +1.1,+0.0,+0.0
scf_steps: 50
energies:  # eV
  coulomb:          -7.964423
  zero:              0.066367
  xc:              -14.903284
  external:          0.000000
  kinetic:          10.569356
  spinorbit:         0.000000
  entropy:          -0.062149
  total:           -12.294133
  extrapolated:    -12.263059

dipole moment: [-3.363088, -6.062480, -0.711622]  # |e|*Ang

total magnetic moment: [1.120733, 0.001829, 0.000000]

local magnetic moments: [
  [ 1.111908, -0.000601,  0.000000],  # Ni 0
  [-0.051317,  0.000031,  0.000000],  # I  1
  [ 0.048214, -0.017575,  0.000000]]  # I  2


Fermi level: -1.200 eV

kpt = [-0.455, -0.455, 0.000], weight = 0.008:
  Band      eig [eV]   occ [0-1]
     0       -64.951       1.000
   ...
    22        -3.015       1.000
    23        -2.893       1.000
    24        -2.727       1.000
    25        -2.313       1.000
    26        -2.167       1.000
    27        -2.100       1.000
    28        -1.872       0.999
    29        -1.648       0.989
    30        -1.016       0.137
    31        -0.788       0.016
    32         2.407       0.000
    33         2.552       0.000
    34         4.347       0.000
    35         4.712       0.000
    36         4.943       0.000
    37         5.075       0.000
   ...
    39         5.683       0.000

kpt = [-0.455, -0.364, 0.000], weight = 0.008:
  Band      eig [eV]   occ [0-1]
     0       -64.951       1.000
   ...
    22        -2.933       1.000
    23        -2.902       1.000
    24        -2.739       1.000
    25        -2.410       1.000
    26        -2.145       1.000
    27        -2.105       1.000
    28        -1.767       0.997
    29        -1.564       0.974
    30        -0.968       0.089
    31        -0.738       0.010
    32         2.130       0.000
    33         2.587       0.000
    34         4.076       0.000
    35         4.356       0.000
    36         4.531       0.000
    37         5.016       0.000
   ...
    39         5.538       0.000

kpt = [-0.455, -0.273, 0.000], weight = 0.008:
  Band      eig [eV]   occ [0-1]
     0       -64.951       1.000
   ...
    22        -2.965       1.000
    23        -2.832       1.000
    24        -2.666       1.000
    25        -2.461       1.000
    26        -2.130       1.000
    27        -2.057       1.000
    28        -1.780       0.997
    29        -1.443       0.919
    30        -1.039       0.166
    31        -0.641       0.004
    32         2.075       0.000
    33         2.763       0.000
    34         3.785       0.000
    35         4.060       0.000
    36         4.378       0.000
    37         4.846       0.000
   ...
    39         5.753       0.000
(only showing first 3 out of 121 k-points)

Gap: 0.159 eV
Transition (v -> c):
  (s=0, k=93, n=29, [0.27, 0.00, 0.00]) -> (s=0, k=63, n=30, [0.00, 0.27, 0.00])
# Writing to Band/gsq-43.gpw (mode='')

---

timing:  # [seconds]
  Total: 856.466  # ━━━━━━━━━━━━━━━━━━━━━━━━━━━━━━━━━━━━━━━━━━━━━━━━━━━━━━━━━
  Init:   10.756  # ╸
  SCF:   844.263  # ━━━━━━━━━━━━━━━━━━━━━━━━━━━━━━━━━━━━━━━━━━━━━━━━━━━━━━━━

Max RSS: 1949.875  # MiB
