#  __  _  _
# | _ |_)|_||  |
# |__||  | ||/\| - 24.1.0

User:   s194113@n-62-28-16
Date:   Fri Apr 26 02:09:15 2024
Arch:   x86_64
Pid:    5951
CWD:    /work3/s194113/10302/10302_NM/NiI2
Python: 3.8.5
gpaw:   /zhome/87/8/147075/venv-name/gpaw/gpaw (10808453a8)
_gpaw:  /zhome/87/8/147075/venv-name/gpaw/
        _gpaw.cpython-38-x86_64-linux-gnu.so (10808453a8)
ase:    /zhome/87/8/147075/venv-name/ase/ase (version 3.23.0b1-c36115a2db)
numpy:  /zhome/87/8/147075/venv-name/lib/python3.8/site-packages/numpy (version 1.24.4)
scipy:  /zhome/87/8/147075/venv-name/lib/python3.8/site-packages/scipy (version 1.10.1)
libxc:  4.3.4
units:  Angstrom and eV
cores: 12
OpenMP: False
OMP_NUM_THREADS: 1

---
input parameters:
  kpts: 
    density: 6.0
    gamma: True
  magmoms: [[1.28782608, 0, 0], [0.19870794, 0, 0], [0.19870794, 0, 0]]
  mixer: 
    backend: 'pulay'
    beta: 0.05
    method: 'sum'
    nmaxold: 5
    weight: 100
  mode: 
    name: 'pw'
    ecut: 600.0
    qspiral: array([0.44444444, 0.        , 0.        ])
  parallel: 
    kpt: None
    domain: 1
    band: 1
    order: 'kdb'
    stridebands: False
    augment_grids: False
    sl_auto: False
    sl_default: None
    sl_diagonalize: None
    sl_inverse_cholesky: None
    sl_lcao: None
    sl_lrtddft: None
    use_elpa: False
    elpasolver: '2stage'
    buffer_size: None
    gpu: False
  symmetry: 
    point_group: False
    time_reversal: False
  xc: 
    name: 'LDA'

#                        
#                        
#                        
#                        
#                        
#              I         
#                        
#        Ni              
#          I             
#                        
#                        
#                        
#                        
#                        

atoms: [  # symbols, positions [Ang] and initial magnetic moments
  [ Ni, [   0.000000,    0.000000,    7.513573], [ 1.288,  0.000,  0.000]], # 0
  [  I, [   1.984831,    1.145943,    9.027147], [ 0.199,  0.000,  0.000]], # 1
  [  I, [   0.000000,    2.291885,    6.000000], [ 0.199,  0.000,  0.000]]] # 2

cell: [  # Ang
#     x            y            z
  [   3.969662,    0.000000,    0.000000],
  [  -1.984831,    3.437828,    0.000000],
  [   0.000000,    0.000000,   15.027147]]

periodic: [True      , True      , False     ]
lengths:  [  3.969662,   3.969662,  15.027147]  # Ang
angles:   [ 90.000000,  90.000000, 120.000000]

symmetry:
  number of symmetries: 1
  rotations: [
    [[ 1,  0,  0], [ 0,  1,  0], [ 0,  0,  1]]]

bz sampling:
  number of bz points: 121
  number of ibz points: 121
  monkhorst-pack size: [11, 11, 1]
  monkhorst-pack shift: [0, 0, 0]
  points and weights: [
    [[ -0.45454545,  -0.45454545,   0.00000000], 0.00826446],  # 0
    [[ -0.45454545,  -0.36363636,   0.00000000], 0.00826446],  # 1
    [[ -0.45454545,  -0.27272727,   0.00000000], 0.00826446],  # 2
    [[ -0.45454545,  -0.18181818,   0.00000000], 0.00826446],  # 3
    [[ -0.45454545,  -0.09090909,   0.00000000], 0.00826446],  # 4
    [[ -0.45454545,   0.00000000,   0.00000000], 0.00826446],  # 5
    [[ -0.45454545,   0.09090909,   0.00000000], 0.00826446],  # 6
    [[ -0.45454545,   0.18181818,   0.00000000], 0.00826446],  # 7
    [[ -0.45454545,   0.27272727,   0.00000000], 0.00826446],  # 8
    [[ -0.45454545,   0.36363636,   0.00000000], 0.00826446],  # 9
    # ...
    [[  0.45454545,   0.45454545,   0.00000000], 0.00826446]]  # 120

plane wave coefficients: 6874
cutoff: 600.0 eV

spin-components: 4  # (non-collinear spins)
bands: 40
valence electrons: 30.0
spin-degeneracy: 1
dtype: complex128

memory:
    wave functions: 1_060_928_000  # bytes  (88_410_666 per core)

parallelization:
    kpt:    12
    domain: 1
    band:   1

density:
  components: 4
  grid points: [24 24 90]
  charge: 0.0  # |e|

potential:
  grid points: [24 24 90]

species:
  Ni:
    name: Nickel
    id: 1802175e8de9ea26d9f4394ec1a7d564
    Z: 28.0
    valence: 16
    core: 12
    charge: 0.0
    file: /zhome/86/d/1666/PAW/gpaw-setups-0.9.20000/Ni.LDA.gz
    compensation charges: {type: gauss,
                           rc: 0.36,
                           lmax: 2}
    cutoffs: {filter: 2.14,
              core: 1.98}
    valence states:
      #              energy  rcut
      - 4s(2.00)    -5.858   1.164
      - 3p(6.00)   -71.266   1.207
      - 4p(0.00)    -1.338   1.207
      - 3d(8.00)    -9.141   1.138
      -  s          21.353   1.164
      -  d          18.071   1.138
  
    # Using partial waves for Ni as LCAO basis

  I:
    name: Iodine
    id: b559721c0c096a7b4c8fc0e0f4de5cf4
    Z: 53.0
    valence: 7
    core: 46
    charge: 0.0
    file: /zhome/86/d/1666/PAW/gpaw-setups-0.9.20000/I.LDA.gz
    compensation charges: {type: gauss,
                           rc: 0.37,
                           lmax: 2}
    cutoffs: {filter: 2.06,
              core: 2.90}
    valence states:
      #              energy  rcut
      - 5s(2.00)   -17.626   1.164
      - 5p(5.00)    -7.241   1.164
      -  s           9.585   1.164
      -  p          19.970   1.164
      -  d           0.000   1.164
  
    # Using partial waves for I as LCAO basis

Reference energy: -428067.566327  # eV

eigensolver:
  name: 'Davidson'
  niter: 2
  converge_bands: 'occupied'
Density mixing:
  Method: sum
  Backend: pulay
  Linear mixing parameter: 0.05
  old densities: 5
  Damping of long wavelength oscillations: 100
occupation numbers:
  Fermi-Dirac:
    width: 0.1000  # eV
  

poisson solver:
  ecut: 4800.0  # eV

xc functional:
  name: None

convergence criteria:
- Maximum [total energy] change in last 3 cyles: 0.0005 eV / valence electron
- Maximum integral of absolute [dens]ity change: 0.0001 electrons / valence electron
- Maximum integral of absolute [eigenst]ate change: 4e-08 eV^2 / valence electron
maximum number of iterations: 333

#      iter     time        total  log10-change:
#                          energy   eigst   dens
# iter:   1 02:09:41   -13.102718                  +1.7,+0.0,+0.0
# iter:   2 02:09:58   -12.491550   +0.23  -1.31   +1.1,-0.0,+0.0
# iter:   3 02:10:14   -12.172963   -0.38  -1.46   +1.0,-0.0,-0.0
# iter:   4 02:10:31   -12.233520   -0.95  -1.68   +1.1,-0.0,+0.0
# iter:   5 02:10:47   -12.540994   -1.11  -1.66   +1.1,-0.0,-0.0
# iter:   6 02:11:03   -12.250469   -1.31  -1.70   +1.0,+0.0,-0.0
# iter:   7 02:11:20   -12.254306   -1.61  -2.25   +1.1,+0.0,-0.0
# iter:   8 02:11:36   -12.249251c  -1.78  -2.35   +1.1,+0.0,-0.0
# iter:   9 02:11:53   -12.250122c  -1.93  -2.62   +1.1,+0.0,-0.0
# iter:  10 02:12:09   -12.250786c  -2.12  -3.04   +1.1,+0.0,-0.0
# iter:  11 02:12:25   -12.258367c  -2.25  -3.01   +1.2,+0.0,-0.0
# iter:  12 02:12:42   -12.256615c  -2.42  -2.68   +1.2,+0.0,-0.0
# iter:  13 02:12:58   -12.256728c  -2.56  -2.76   +1.2,+0.0,-0.0
# iter:  14 02:13:14   -12.256372c  -2.69  -2.75   +1.2,+0.0,-0.0
# iter:  15 02:13:31   -12.253937c  -2.76  -2.81   +1.2,+0.0,+0.0
# iter:  16 02:13:47   -12.254146c  -2.96  -3.65   +1.2,+0.0,+0.0
# iter:  17 02:14:03   -12.254808c  -3.11  -3.86   +1.2,+0.0,+0.0
# iter:  18 02:14:19   -12.254622c  -3.24  -3.75   +1.2,+0.0,+0.0
# iter:  19 02:14:36   -12.254679c  -3.38  -3.98   +1.2,+0.0,+0.0
# iter:  20 02:14:52   -12.254780c  -3.51  -4.04c  +1.2,+0.0,+0.0
# iter:  21 02:15:08   -12.254798c  -3.64  -4.02c  +1.2,+0.0,+0.0
# iter:  22 02:15:25   -12.254993c  -3.78  -4.08c  +1.2,+0.0,+0.0
# iter:  23 02:15:41   -12.255367c  -3.91  -4.03c  +1.2,+0.0,+0.0
# iter:  24 02:15:57   -12.255423c  -4.04  -4.19c  +1.2,+0.0,+0.0
# iter:  25 02:16:14   -12.255633c  -4.18  -4.33c  +1.2,+0.0,+0.0
# iter:  26 02:16:30   -12.255551c  -4.32  -4.49c  +1.2,+0.0,+0.0
# iter:  27 02:16:46   -12.255551c  -4.46  -4.73c  +1.2,+0.0,+0.0
# iter:  28 02:17:03   -12.255573c  -4.60  -4.96c  +1.2,+0.0,+0.0
# iter:  29 02:17:19   -12.255559c  -4.73  -5.02c  +1.2,+0.0,+0.0
# iter:  30 02:17:36   -12.255550c  -4.87  -5.03c  +1.2,+0.0,+0.0
# iter:  31 02:17:52   -12.255558c  -5.01  -5.01c  +1.2,+0.0,+0.0
# iter:  32 02:18:08   -12.255606c  -5.15  -5.04c  +1.2,+0.0,+0.0
# iter:  33 02:18:25   -12.255611c  -5.28  -5.16c  +1.2,+0.0,+0.0
# iter:  34 02:18:41   -12.255625c  -5.43  -5.22c  +1.2,+0.0,+0.0
# iter:  35 02:18:58   -12.255625c  -5.57  -5.35c  +1.2,+0.0,+0.0
# iter:  36 02:19:14   -12.255628c  -5.71  -5.38c  +1.2,+0.0,+0.0
# iter:  37 02:19:31   -12.255638c  -5.85  -5.50c  +1.2,+0.0,+0.0
# iter:  38 02:19:47   -12.255643c  -5.99  -5.64c  +1.2,+0.0,+0.0
# iter:  39 02:20:04   -12.255644c  -6.13  -5.95c  +1.2,+0.0,+0.0
# iter:  40 02:20:20   -12.255645c  -6.27  -6.11c  +1.2,+0.0,+0.0
# iter:  41 02:20:37   -12.255649c  -6.41  -6.21c  +1.2,+0.0,+0.0
# iter:  42 02:20:53   -12.255649c  -6.55  -6.41c  +1.2,+0.0,+0.0
# iter:  43 02:21:10   -12.255649c  -6.70  -6.44c  +1.2,+0.0,+0.0
# iter:  44 02:21:26   -12.255650c  -6.84  -6.47c  +1.2,+0.0,+0.0
# iter:  45 02:21:43   -12.255650c  -6.99  -6.54c  +1.2,+0.0,+0.0
# iter:  46 02:21:59   -12.255650c  -7.13  -6.62c  +1.2,+0.0,+0.0
# iter:  47 02:22:16   -12.255650c  -7.27  -6.68c  +1.2,+0.0,+0.0
# iter:  48 02:22:32   -12.255650c  -7.41c -6.69c  +1.2,+0.0,+0.0
scf_steps: 48
energies:  # eV
  coulomb:          -8.014315
  zero:              0.066239
  xc:              -14.908273
  external:          0.000000
  kinetic:          10.634572
  spinorbit:         0.000000
  entropy:          -0.067746
  total:           -12.289523
  extrapolated:    -12.255650

dipole moment: [-3.488911, -6.205320, -1.429731]  # |e|*Ang

total magnetic moment: [1.208452, 0.005750, 0.000000]

local magnetic moments: [
  [ 1.109946, -0.001980,  0.000000],  # Ni 0
  [-0.050448, -0.038954,  0.000000],  # I  1
  [ 0.060660, -0.019567,  0.000000]]  # I  2


Fermi level: -1.195 eV

kpt = [-0.455, -0.455, 0.000], weight = 0.008:
  Band      eig [eV]   occ [0-1]
     0       -64.950       1.000
   ...
    22        -2.997       1.000
    23        -2.939       1.000
    24        -2.694       1.000
    25        -2.293       1.000
    26        -2.182       1.000
    27        -2.095       1.000
    28        -1.854       0.999
    29        -1.580       0.979
    30        -1.002       0.127
    31        -0.738       0.010
    32         2.247       0.000
    33         2.585       0.000
    34         4.241       0.000
    35         4.382       0.000
    36         4.703       0.000
    37         5.055       0.000
   ...
    39         5.709       0.000

kpt = [-0.455, -0.364, 0.000], weight = 0.008:
  Band      eig [eV]   occ [0-1]
     0       -64.950       1.000
   ...
    22        -2.968       1.000
    23        -2.888       1.000
    24        -2.731       1.000
    25        -2.407       1.000
    26        -2.121       1.000
    27        -2.109       1.000
    28        -1.766       0.997
    29        -1.533       0.967
    30        -0.968       0.094
    31        -0.693       0.007
    32         2.031       0.000
    33         2.515       0.000
    34         3.838       0.000
    35         4.399       0.000
    36         4.681       0.000
    37         4.935       0.000
   ...
    39         5.590       0.000

kpt = [-0.455, -0.273, 0.000], weight = 0.008:
  Band      eig [eV]   occ [0-1]
     0       -64.950       1.000
   ...
    22        -2.937       1.000
    23        -2.827       1.000
    24        -2.666       1.000
    25        -2.426       1.000
    26        -2.114       1.000
    27        -2.048       1.000
    28        -1.817       0.998
    29        -1.485       0.948
    30        -1.060       0.206
    31        -0.674       0.005
    32         2.332       0.000
    33         2.667       0.000
    34         3.859       0.000
    35         4.196       0.000
    36         4.373       0.000
    37         4.813       0.000
   ...
    39         5.656       0.000
(only showing first 3 out of 121 k-points)

No gap
# Writing to Band/gsq-32.gpw (mode='')

---

timing:  # [seconds]
  Total: 9086.512  # ━━━━━━━━━━━━━━━━━━━━━━━━━━━━━━━━━━━━━━━━━━━━━━━━━━━━━━━━
  Init:    10.759  # 
  SCF:    786.487  # ━━━━━

Max RSS: 1949.875  # MiB
