#  __  _  _
# | _ |_)|_||  |
# |__||  | ||/\| - 24.1.0

User:   s194113@n-62-28-16
Date:   Fri Apr 26 06:34:27 2024
Arch:   x86_64
Pid:    5951
CWD:    /work3/s194113/10302/10302_NM/NiI2
Python: 3.8.5
gpaw:   /zhome/87/8/147075/venv-name/gpaw/gpaw (10808453a8)
_gpaw:  /zhome/87/8/147075/venv-name/gpaw/
        _gpaw.cpython-38-x86_64-linux-gnu.so (10808453a8)
ase:    /zhome/87/8/147075/venv-name/ase/ase (version 3.23.0b1-c36115a2db)
numpy:  /zhome/87/8/147075/venv-name/lib/python3.8/site-packages/numpy (version 1.24.4)
scipy:  /zhome/87/8/147075/venv-name/lib/python3.8/site-packages/scipy (version 1.10.1)
libxc:  4.3.4
units:  Angstrom and eV
cores: 12
OpenMP: False
OMP_NUM_THREADS: 1

---
input parameters:
  kpts: 
    density: 6.0
    gamma: True
  magmoms: [[1.28782608, 0, 0], [0.19870794, 0, 0], [0.19870794, 0, 0]]
  mixer: 
    backend: 'pulay'
    beta: 0.05
    method: 'sum'
    nmaxold: 5
    weight: 100
  mode: 
    name: 'pw'
    ecut: 600.0
    qspiral: array([0.38095238, 0.23809524, 0.        ])
  parallel: 
    kpt: None
    domain: 1
    band: 1
    order: 'kdb'
    stridebands: False
    augment_grids: False
    sl_auto: False
    sl_default: None
    sl_diagonalize: None
    sl_inverse_cholesky: None
    sl_lcao: None
    sl_lrtddft: None
    use_elpa: False
    elpasolver: '2stage'
    buffer_size: None
    gpu: False
  symmetry: 
    point_group: False
    time_reversal: False
  xc: 
    name: 'LDA'

#                        
#                        
#                        
#                        
#                        
#              I         
#                        
#        Ni              
#          I             
#                        
#                        
#                        
#                        
#                        

atoms: [  # symbols, positions [Ang] and initial magnetic moments
  [ Ni, [   0.000000,    0.000000,    7.513573], [ 1.288,  0.000,  0.000]], # 0
  [  I, [   1.984831,    1.145943,    9.027147], [ 0.199,  0.000,  0.000]], # 1
  [  I, [   0.000000,    2.291885,    6.000000], [ 0.199,  0.000,  0.000]]] # 2

cell: [  # Ang
#     x            y            z
  [   3.969662,    0.000000,    0.000000],
  [  -1.984831,    3.437828,    0.000000],
  [   0.000000,    0.000000,   15.027147]]

periodic: [True      , True      , False     ]
lengths:  [  3.969662,   3.969662,  15.027147]  # Ang
angles:   [ 90.000000,  90.000000, 120.000000]

symmetry:
  number of symmetries: 1
  rotations: [
    [[ 1,  0,  0], [ 0,  1,  0], [ 0,  0,  1]]]

bz sampling:
  number of bz points: 121
  number of ibz points: 121
  monkhorst-pack size: [11, 11, 1]
  monkhorst-pack shift: [0, 0, 0]
  points and weights: [
    [[ -0.45454545,  -0.45454545,   0.00000000], 0.00826446],  # 0
    [[ -0.45454545,  -0.36363636,   0.00000000], 0.00826446],  # 1
    [[ -0.45454545,  -0.27272727,   0.00000000], 0.00826446],  # 2
    [[ -0.45454545,  -0.18181818,   0.00000000], 0.00826446],  # 3
    [[ -0.45454545,  -0.09090909,   0.00000000], 0.00826446],  # 4
    [[ -0.45454545,   0.00000000,   0.00000000], 0.00826446],  # 5
    [[ -0.45454545,   0.09090909,   0.00000000], 0.00826446],  # 6
    [[ -0.45454545,   0.18181818,   0.00000000], 0.00826446],  # 7
    [[ -0.45454545,   0.27272727,   0.00000000], 0.00826446],  # 8
    [[ -0.45454545,   0.36363636,   0.00000000], 0.00826446],  # 9
    # ...
    [[  0.45454545,   0.45454545,   0.00000000], 0.00826446]]  # 120

plane wave coefficients: 6874
cutoff: 600.0 eV

spin-components: 4  # (non-collinear spins)
bands: 40
valence electrons: 30.0
spin-degeneracy: 1
dtype: complex128

memory:
    wave functions: 1_060_928_000  # bytes  (88_410_666 per core)

parallelization:
    kpt:    12
    domain: 1
    band:   1

density:
  components: 4
  grid points: [24 24 90]
  charge: 0.0  # |e|

potential:
  grid points: [24 24 90]

species:
  Ni:
    name: Nickel
    id: 1802175e8de9ea26d9f4394ec1a7d564
    Z: 28.0
    valence: 16
    core: 12
    charge: 0.0
    file: /zhome/86/d/1666/PAW/gpaw-setups-0.9.20000/Ni.LDA.gz
    compensation charges: {type: gauss,
                           rc: 0.36,
                           lmax: 2}
    cutoffs: {filter: 2.14,
              core: 1.98}
    valence states:
      #              energy  rcut
      - 4s(2.00)    -5.858   1.164
      - 3p(6.00)   -71.266   1.207
      - 4p(0.00)    -1.338   1.207
      - 3d(8.00)    -9.141   1.138
      -  s          21.353   1.164
      -  d          18.071   1.138
  
    # Using partial waves for Ni as LCAO basis

  I:
    name: Iodine
    id: b559721c0c096a7b4c8fc0e0f4de5cf4
    Z: 53.0
    valence: 7
    core: 46
    charge: 0.0
    file: /zhome/86/d/1666/PAW/gpaw-setups-0.9.20000/I.LDA.gz
    compensation charges: {type: gauss,
                           rc: 0.37,
                           lmax: 2}
    cutoffs: {filter: 2.06,
              core: 2.90}
    valence states:
      #              energy  rcut
      - 5s(2.00)   -17.626   1.164
      - 5p(5.00)    -7.241   1.164
      -  s           9.585   1.164
      -  p          19.970   1.164
      -  d           0.000   1.164
  
    # Using partial waves for I as LCAO basis

Reference energy: -428067.566327  # eV

eigensolver:
  name: 'Davidson'
  niter: 2
  converge_bands: 'occupied'
Density mixing:
  Method: sum
  Backend: pulay
  Linear mixing parameter: 0.05
  old densities: 5
  Damping of long wavelength oscillations: 100
occupation numbers:
  Fermi-Dirac:
    width: 0.1000  # eV
  

poisson solver:
  ecut: 4800.0  # eV

xc functional:
  name: None

convergence criteria:
- Maximum [total energy] change in last 3 cyles: 0.0005 eV / valence electron
- Maximum integral of absolute [dens]ity change: 0.0001 electrons / valence electron
- Maximum integral of absolute [eigenst]ate change: 4e-08 eV^2 / valence electron
maximum number of iterations: 333

#      iter     time        total  log10-change:
#                          energy   eigst   dens
# iter:   1 06:34:53   -12.717643                  +1.7,+0.0,+0.0
# iter:   2 06:35:09   -12.431705   +0.41  -1.31   +1.1,-0.0,-0.0
# iter:   3 06:35:26   -12.181253   -0.26  -1.45   +1.0,-0.0,+0.0
# iter:   4 06:35:42   -12.231640   -0.80  -1.68   +1.0,-0.0,+0.0
# iter:   5 06:35:59   -12.553506   -0.98  -1.68   +1.0,-0.0,-0.0
# iter:   6 06:36:15   -12.287311   -1.22  -1.72   +0.9,-0.0,+0.0
# iter:   7 06:36:31   -12.296459   -1.49  -2.24   +1.0,+0.0,+0.0
# iter:   8 06:36:48   -12.282861c  -1.64  -2.30   +1.0,+0.0,+0.0
# iter:   9 06:37:04   -12.284670c  -1.81  -2.76   +1.0,+0.0,+0.0
# iter:  10 06:37:20   -12.285038c  -1.97  -3.04   +1.0,+0.0,+0.0
# iter:  11 06:37:37   -12.286348c  -2.10  -3.12   +1.1,+0.0,+0.0
# iter:  12 06:37:53   -12.286907c  -2.25  -3.16   +1.1,+0.0,+0.0
# iter:  13 06:38:09   -12.287366c  -2.38  -3.66   +1.1,+0.0,+0.0
# iter:  14 06:38:26   -12.287452c  -2.51  -3.57   +1.1,+0.0,+0.0
# iter:  15 06:38:42   -12.287659c  -2.65  -3.61   +1.1,+0.0,+0.0
# iter:  16 06:38:58   -12.287746c  -2.78  -3.90   +1.1,+0.0,+0.0
# iter:  17 06:39:14   -12.287773c  -2.91  -3.90   +1.1,+0.0,+0.0
# iter:  18 06:39:31   -12.287834c  -3.04  -3.94   +1.1,+0.0,+0.0
# iter:  19 06:39:47   -12.287897c  -3.17  -3.95   +1.1,+0.0,+0.0
# iter:  20 06:40:03   -12.287985c  -3.30  -4.01c  +1.1,+0.0,+0.0
# iter:  21 06:40:20   -12.288068c  -3.43  -4.14c  +1.1,+0.0,+0.0
# iter:  22 06:40:36   -12.288241c  -3.55  -4.16c  +1.1,+0.0,+0.0
# iter:  23 06:40:52   -12.288286c  -3.69  -4.16c  +1.1,+0.0,+0.0
# iter:  24 06:41:09   -12.288320c  -3.82  -4.37c  +1.1,+0.0,+0.0
# iter:  25 06:41:25   -12.288438c  -3.94  -4.36c  +1.1,+0.0,+0.0
# iter:  26 06:41:41   -12.288490c  -4.08  -4.40c  +1.1,+0.0,+0.0
# iter:  27 06:41:58   -12.288501c  -4.21  -4.67c  +1.1,+0.0,+0.0
# iter:  28 06:42:14   -12.288521c  -4.33  -4.84c  +1.1,+0.0,+0.0
# iter:  29 06:42:30   -12.288572c  -4.46  -4.96c  +1.1,+0.0,+0.0
# iter:  30 06:42:47   -12.288578c  -4.59  -5.11c  +1.1,+0.0,+0.0
# iter:  31 06:43:03   -12.288582c  -4.72  -5.17c  +1.1,+0.0,+0.0
# iter:  32 06:43:19   -12.288585c  -4.86  -5.22c  +1.1,+0.0,+0.0
# iter:  33 06:43:36   -12.288594c  -4.99  -5.26c  +1.1,+0.0,+0.0
# iter:  34 06:43:52   -12.288598c  -5.12  -5.37c  +1.1,+0.0,+0.0
# iter:  35 06:44:08   -12.288600c  -5.25  -5.36c  +1.1,+0.0,+0.0
# iter:  36 06:44:25   -12.288603c  -5.38  -5.40c  +1.1,+0.0,+0.0
# iter:  37 06:44:41   -12.288613c  -5.51  -5.59c  +1.1,+0.0,+0.0
# iter:  38 06:44:57   -12.288614c  -5.64  -6.01c  +1.1,+0.0,+0.0
# iter:  39 06:45:14   -12.288614c  -5.78  -6.03c  +1.1,+0.0,+0.0
# iter:  40 06:45:30   -12.288615c  -5.91  -6.04c  +1.1,+0.0,+0.0
# iter:  41 06:45:46   -12.288615c  -6.05  -6.03c  +1.1,+0.0,+0.0
# iter:  42 06:46:03   -12.288614c  -6.18  -6.03c  +1.1,+0.0,+0.0
# iter:  43 06:46:20   -12.288614c  -6.32  -6.06c  +1.1,+0.0,+0.0
# iter:  44 06:46:36   -12.288614c  -6.46  -6.03c  +1.1,+0.0,+0.0
# iter:  45 06:46:52   -12.288614c  -6.60  -6.05c  +1.1,+0.0,+0.0
# iter:  46 06:47:09   -12.288614c  -6.73  -6.05c  +1.1,+0.0,-0.0
# iter:  47 06:47:25   -12.288614c  -6.88  -6.04c  +1.1,+0.0,+0.0
# iter:  48 06:47:42   -12.288615c  -7.02  -6.05c  +1.1,+0.0,+0.0
# iter:  49 06:47:58   -12.288615c  -7.15  -6.05c  +1.1,+0.0,+0.0
# iter:  50 06:48:15   -12.288615c  -7.30  -6.05c  +1.1,+0.0,+0.0
# iter:  51 06:48:31   -12.288615c  -7.44c -6.07c  +1.1,+0.0,-0.0
scf_steps: 51
energies:  # eV
  coulomb:          -7.732411
  zero:              0.066713
  xc:              -14.881050
  external:          0.000000
  kinetic:          10.281137
  spinorbit:         0.000000
  entropy:          -0.046008
  total:           -12.311619
  extrapolated:    -12.288615

dipole moment: [-3.372875, -5.977248, -0.631100]  # |e|*Ang

total magnetic moment: [1.086666, 0.001914, -0.000000]

local magnetic moments: [
  [ 1.112324, -0.000647, -0.000000],  # Ni 0
  [-0.027266,  0.000008, -0.000000],  # I  1
  [ 0.019969, -0.018564, -0.000000]]  # I  2


Fermi level: -1.201 eV

kpt = [-0.455, -0.455, 0.000], weight = 0.008:
  Band      eig [eV]   occ [0-1]
     0       -64.943       1.000
   ...
    22        -3.013       1.000
    23        -2.833       1.000
    24        -2.771       1.000
    25        -2.338       1.000
    26        -2.129       1.000
    27        -2.102       1.000
    28        -1.852       0.999
    29        -1.751       0.996
    30        -0.973       0.093
    31        -0.870       0.035
    32         2.445       0.000
    33         2.601       0.000
    34         4.580       0.000
    35         4.620       0.000
    36         5.047       0.000
    37         5.103       0.000
   ...
    39         5.790       0.000

kpt = [-0.455, -0.364, 0.000], weight = 0.008:
  Band      eig [eV]   occ [0-1]
     0       -64.943       1.000
   ...
    22        -2.921       1.000
    23        -2.892       1.000
    24        -2.769       1.000
    25        -2.408       1.000
    26        -2.175       1.000
    27        -2.103       1.000
    28        -1.758       0.996
    29        -1.612       0.984
    30        -0.939       0.068
    31        -0.772       0.013
    32         2.131       0.000
    33         2.669       0.000
    34         4.185       0.000
    35         4.282       0.000
    36         4.703       0.000
    37         4.984       0.000
   ...
    39         5.693       0.000

kpt = [-0.455, -0.273, 0.000], weight = 0.008:
  Band      eig [eV]   occ [0-1]
     0       -64.943       1.000
   ...
    22        -2.980       1.000
    23        -2.857       1.000
    24        -2.726       1.000
    25        -2.405       1.000
    26        -2.203       1.000
    27        -2.073       1.000
    28        -1.685       0.992
    29        -1.455       0.927
    30        -0.950       0.075
    31        -0.663       0.005
    32         1.877       0.000
    33         2.592       0.000
    34         3.796       0.000
    35         4.139       0.000
    36         4.378       0.000
    37         4.700       0.000
   ...
    39         5.310       0.000
(only showing first 3 out of 121 k-points)

Gap: 0.372 eV
Transition (v -> c):
  (s=0, k=27, n=29, [-0.27, 0.00, 0.00]) -> (s=0, k=65, n=30, [0.00, 0.45, 0.00])
# Writing to Band/gsq-51.gpw (mode='')

---

timing:  # [seconds]
  Total: 15473.815  # ━━━━━━━━━━━━━━━━━━━━━━━━━━━━━━━━━━━━━━━━━━━━━━━━━━━━━━━
  Init:     10.797  # 
  SCF:     833.364  # ━━━

Max RSS: 2935.559  # MiB
