#  __  _  _
# | _ |_)|_||  |
# |__||  | ||/\| - 24.1.0

User:   s194113@n-62-28-16
Date:   Fri Apr 26 01:16:40 2024
Arch:   x86_64
Pid:    5951
CWD:    /work3/s194113/10302/10302_NM/NiI2
Python: 3.8.5
gpaw:   /zhome/87/8/147075/venv-name/gpaw/gpaw (10808453a8)
_gpaw:  /zhome/87/8/147075/venv-name/gpaw/
        _gpaw.cpython-38-x86_64-linux-gnu.so (10808453a8)
ase:    /zhome/87/8/147075/venv-name/ase/ase (version 3.23.0b1-c36115a2db)
numpy:  /zhome/87/8/147075/venv-name/lib/python3.8/site-packages/numpy (version 1.24.4)
scipy:  /zhome/87/8/147075/venv-name/lib/python3.8/site-packages/scipy (version 1.10.1)
libxc:  4.3.4
units:  Angstrom and eV
cores: 12
OpenMP: False
OMP_NUM_THREADS: 1

---
input parameters:
  kpts: 
    density: 6.0
    gamma: True
  magmoms: [[1.28782608, 0, 0], [0.19870794, 0, 0], [0.19870794, 0, 0]]
  mixer: 
    backend: 'pulay'
    beta: 0.05
    method: 'sum'
    nmaxold: 5
    weight: 100
  mode: 
    name: 'pw'
    ecut: 600.0
    qspiral: array([0.38888889, 0.        , 0.        ])
  parallel: 
    kpt: None
    domain: 1
    band: 1
    order: 'kdb'
    stridebands: False
    augment_grids: False
    sl_auto: False
    sl_default: None
    sl_diagonalize: None
    sl_inverse_cholesky: None
    sl_lcao: None
    sl_lrtddft: None
    use_elpa: False
    elpasolver: '2stage'
    buffer_size: None
    gpu: False
  symmetry: 
    point_group: False
    time_reversal: False
  xc: 
    name: 'LDA'

#                        
#                        
#                        
#                        
#                        
#              I         
#                        
#        Ni              
#          I             
#                        
#                        
#                        
#                        
#                        

atoms: [  # symbols, positions [Ang] and initial magnetic moments
  [ Ni, [   0.000000,    0.000000,    7.513573], [ 1.288,  0.000,  0.000]], # 0
  [  I, [   1.984831,    1.145943,    9.027147], [ 0.199,  0.000,  0.000]], # 1
  [  I, [   0.000000,    2.291885,    6.000000], [ 0.199,  0.000,  0.000]]] # 2

cell: [  # Ang
#     x            y            z
  [   3.969662,    0.000000,    0.000000],
  [  -1.984831,    3.437828,    0.000000],
  [   0.000000,    0.000000,   15.027147]]

periodic: [True      , True      , False     ]
lengths:  [  3.969662,   3.969662,  15.027147]  # Ang
angles:   [ 90.000000,  90.000000, 120.000000]

symmetry:
  number of symmetries: 1
  rotations: [
    [[ 1,  0,  0], [ 0,  1,  0], [ 0,  0,  1]]]

bz sampling:
  number of bz points: 121
  number of ibz points: 121
  monkhorst-pack size: [11, 11, 1]
  monkhorst-pack shift: [0, 0, 0]
  points and weights: [
    [[ -0.45454545,  -0.45454545,   0.00000000], 0.00826446],  # 0
    [[ -0.45454545,  -0.36363636,   0.00000000], 0.00826446],  # 1
    [[ -0.45454545,  -0.27272727,   0.00000000], 0.00826446],  # 2
    [[ -0.45454545,  -0.18181818,   0.00000000], 0.00826446],  # 3
    [[ -0.45454545,  -0.09090909,   0.00000000], 0.00826446],  # 4
    [[ -0.45454545,   0.00000000,   0.00000000], 0.00826446],  # 5
    [[ -0.45454545,   0.09090909,   0.00000000], 0.00826446],  # 6
    [[ -0.45454545,   0.18181818,   0.00000000], 0.00826446],  # 7
    [[ -0.45454545,   0.27272727,   0.00000000], 0.00826446],  # 8
    [[ -0.45454545,   0.36363636,   0.00000000], 0.00826446],  # 9
    # ...
    [[  0.45454545,   0.45454545,   0.00000000], 0.00826446]]  # 120

plane wave coefficients: 6874
cutoff: 600.0 eV

spin-components: 4  # (non-collinear spins)
bands: 40
valence electrons: 30.0
spin-degeneracy: 1
dtype: complex128

memory:
    wave functions: 1_060_928_000  # bytes  (88_410_666 per core)

parallelization:
    kpt:    12
    domain: 1
    band:   1

density:
  components: 4
  grid points: [24 24 90]
  charge: 0.0  # |e|

potential:
  grid points: [24 24 90]

species:
  Ni:
    name: Nickel
    id: 1802175e8de9ea26d9f4394ec1a7d564
    Z: 28.0
    valence: 16
    core: 12
    charge: 0.0
    file: /zhome/86/d/1666/PAW/gpaw-setups-0.9.20000/Ni.LDA.gz
    compensation charges: {type: gauss,
                           rc: 0.36,
                           lmax: 2}
    cutoffs: {filter: 2.14,
              core: 1.98}
    valence states:
      #              energy  rcut
      - 4s(2.00)    -5.858   1.164
      - 3p(6.00)   -71.266   1.207
      - 4p(0.00)    -1.338   1.207
      - 3d(8.00)    -9.141   1.138
      -  s          21.353   1.164
      -  d          18.071   1.138
  
    # Using partial waves for Ni as LCAO basis

  I:
    name: Iodine
    id: b559721c0c096a7b4c8fc0e0f4de5cf4
    Z: 53.0
    valence: 7
    core: 46
    charge: 0.0
    file: /zhome/86/d/1666/PAW/gpaw-setups-0.9.20000/I.LDA.gz
    compensation charges: {type: gauss,
                           rc: 0.37,
                           lmax: 2}
    cutoffs: {filter: 2.06,
              core: 2.90}
    valence states:
      #              energy  rcut
      - 5s(2.00)   -17.626   1.164
      - 5p(5.00)    -7.241   1.164
      -  s           9.585   1.164
      -  p          19.970   1.164
      -  d           0.000   1.164
  
    # Using partial waves for I as LCAO basis

Reference energy: -428067.566327  # eV

eigensolver:
  name: 'Davidson'
  niter: 2
  converge_bands: 'occupied'
Density mixing:
  Method: sum
  Backend: pulay
  Linear mixing parameter: 0.05
  old densities: 5
  Damping of long wavelength oscillations: 100
occupation numbers:
  Fermi-Dirac:
    width: 0.1000  # eV
  

poisson solver:
  ecut: 4800.0  # eV

xc functional:
  name: None

convergence criteria:
- Maximum [total energy] change in last 3 cyles: 0.0005 eV / valence electron
- Maximum integral of absolute [dens]ity change: 0.0001 electrons / valence electron
- Maximum integral of absolute [eigenst]ate change: 4e-08 eV^2 / valence electron
maximum number of iterations: 333

#      iter     time        total  log10-change:
#                          energy   eigst   dens
# iter:   1 01:17:06   -13.294671                  +1.7,+0.0,+0.0
# iter:   2 01:17:23   -12.542858   +0.12  -1.31   +1.2,-0.0,-0.0
# iter:   3 01:17:39   -12.195597   -0.45  -1.46   +1.1,-0.0,-0.0
# iter:   4 01:17:56   -12.263484   -1.04  -1.68   +1.2,-0.0,+0.0
# iter:   5 01:18:12   -12.524054   -1.21  -1.66   +1.2,-0.0,-0.0
# iter:   6 01:18:29   -12.274252   -1.40  -1.73   +1.2,+0.0,-0.0
# iter:   7 01:18:45   -12.273162   -1.70  -2.22   +1.2,+0.0,+0.0
# iter:   8 01:19:02   -12.266694c  -1.88  -2.34   +1.2,+0.0,+0.0
# iter:   9 01:19:18   -12.267566c  -2.04  -2.66   +1.2,+0.0,+0.0
# iter:  10 01:19:34   -12.268036c  -2.23  -3.03   +1.3,+0.0,-0.0
# iter:  11 01:19:51   -12.270894c  -2.38  -3.03   +1.3,+0.0,-0.0
# iter:  12 01:20:07   -12.268018c  -2.49  -2.83   +1.3,+0.0,+0.0
# iter:  13 01:20:24   -12.268640c  -2.68  -3.10   +1.3,+0.0,+0.0
# iter:  14 01:20:40   -12.269517c  -2.82  -3.26   +1.3,+0.0,+0.0
# iter:  15 01:20:56   -12.269577c  -2.93  -3.19   +1.3,+0.0,+0.0
# iter:  16 01:21:12   -12.271296c  -3.10  -3.28   +1.3,+0.0,-0.0
# iter:  17 01:21:28   -12.270819c  -3.25  -3.43   +1.3,+0.0,-0.0
# iter:  18 01:21:45   -12.270832c  -3.39  -3.96   +1.3,+0.0,-0.0
# iter:  19 01:22:01   -12.271003c  -3.52  -4.07c  +1.3,+0.0,-0.0
# iter:  20 01:22:17   -12.270994c  -3.66  -4.13c  +1.3,+0.0,-0.0
# iter:  21 01:22:34   -12.271068c  -3.79  -4.18c  +1.3,+0.0,-0.0
# iter:  22 01:22:50   -12.271076c  -3.93  -4.21c  +1.3,+0.0,-0.0
# iter:  23 01:23:07   -12.271098c  -4.06  -4.30c  +1.3,+0.0,-0.0
# iter:  24 01:23:23   -12.271175c  -4.20  -4.36c  +1.3,+0.0,-0.0
# iter:  25 01:23:39   -12.271327c  -4.33  -4.41c  +1.3,+0.0,-0.0
# iter:  26 01:23:56   -12.271350c  -4.46  -4.54c  +1.3,+0.0,-0.0
# iter:  27 01:24:12   -12.271650c  -4.59  -4.53c  +1.3,+0.0,-0.0
# iter:  28 01:24:29   -12.271558c  -4.73  -4.59c  +1.3,+0.0,-0.0
# iter:  29 01:24:45   -12.271597c  -4.87  -4.85c  +1.3,+0.0,-0.0
# iter:  30 01:25:01   -12.271590c  -5.00  -4.92c  +1.3,+0.0,-0.0
# iter:  31 01:25:18   -12.271584c  -5.14  -4.95c  +1.3,+0.0,-0.0
# iter:  32 01:25:34   -12.271593c  -5.27  -5.09c  +1.3,+0.0,-0.0
# iter:  33 01:25:51   -12.271606c  -5.41  -5.27c  +1.3,+0.0,-0.0
# iter:  34 01:26:07   -12.271630c  -5.55  -5.37c  +1.3,+0.0,-0.0
# iter:  35 01:26:23   -12.271631c  -5.68  -5.50c  +1.3,+0.0,-0.0
# iter:  36 01:26:40   -12.271626c  -5.82  -5.58c  +1.3,+0.0,-0.0
# iter:  37 01:26:56   -12.271620c  -5.96  -5.75c  +1.3,+0.0,-0.0
# iter:  38 01:27:12   -12.271623c  -6.09  -5.83c  +1.3,+0.0,-0.0
# iter:  39 01:27:29   -12.271621c  -6.23  -5.85c  +1.3,+0.0,-0.0
# iter:  40 01:27:45   -12.271621c  -6.37  -6.04c  +1.3,+0.0,-0.0
# iter:  41 01:28:01   -12.271622c  -6.51  -6.50c  +1.3,+0.0,-0.0
# iter:  42 01:28:18   -12.271623c  -6.65  -6.51c  +1.3,+0.0,-0.0
# iter:  43 01:28:34   -12.271622c  -6.78  -6.45c  +1.3,+0.0,-0.0
# iter:  44 01:28:50   -12.271621c  -6.92  -6.49c  +1.3,+0.0,-0.0
# iter:  45 01:29:07   -12.271622c  -7.06  -6.46c  +1.3,+0.0,-0.0
# iter:  46 01:29:23   -12.271622c  -7.20  -6.56c  +1.3,+0.0,-0.0
# iter:  47 01:29:39   -12.271623c  -7.34  -6.56c  +1.3,+0.0,-0.0
# iter:  48 01:29:56   -12.271623c  -7.48c -6.56c  +1.3,+0.0,-0.0
scf_steps: 48
energies:  # eV
  coulomb:          -7.916788
  zero:              0.066362
  xc:              -14.904395
  external:          0.000000
  kinetic:          10.512638
  spinorbit:         0.000000
  entropy:          -0.058878
  total:           -12.301062
  extrapolated:    -12.271623

dipole moment: [-3.612552, -6.352910, -2.203350]  # |e|*Ang

total magnetic moment: [1.302616, 0.010498, -0.000000]

local magnetic moments: [
  [ 1.115130, -0.003845, -0.000000],  # Ni 0
  [-0.031141, -0.073868, -0.000000],  # I  1
  [ 0.071084, -0.037060, -0.000000]]  # I  2


Fermi level: -1.189 eV

kpt = [-0.455, -0.455, 0.000], weight = 0.008:
  Band      eig [eV]   occ [0-1]
     0       -64.952       1.000
   ...
    22        -3.001       1.000
    23        -2.955       1.000
    24        -2.722       1.000
    25        -2.293       1.000
    26        -2.178       1.000
    27        -2.090       1.000
    28        -1.843       0.999
    29        -1.583       0.981
    30        -0.949       0.083
    31        -0.728       0.010
    32         2.046       0.000
    33         2.633       0.000
    34         4.130       0.000
    35         4.328       0.000
    36         4.574       0.000
    37         4.996       0.000
   ...
    39         5.782       0.000

kpt = [-0.455, -0.364, 0.000], weight = 0.008:
  Band      eig [eV]   occ [0-1]
     0       -64.952       1.000
   ...
    22        -2.997       1.000
    23        -2.881       1.000
    24        -2.770       1.000
    25        -2.387       1.000
    26        -2.118       1.000
    27        -2.114       1.000
    28        -1.764       0.997
    29        -1.567       0.978
    30        -0.935       0.073
    31        -0.687       0.007
    32         1.909       0.000
    33         2.561       0.000
    34         3.766       0.000
    35         4.366       0.000
    36         4.748       0.000
    37         4.958       0.000
   ...
    39         5.581       0.000

kpt = [-0.455, -0.273, 0.000], weight = 0.008:
  Band      eig [eV]   occ [0-1]
     0       -64.952       1.000
   ...
    22        -2.943       1.000
    23        -2.841       1.000
    24        -2.696       1.000
    25        -2.391       1.000
    26        -2.117       1.000
    27        -2.056       1.000
    28        -1.818       0.998
    29        -1.546       0.973
    30        -1.027       0.164
    31        -0.717       0.009
    32         2.354       0.000
    33         2.655       0.000
    34         3.967       0.000
    35         4.276       0.000
    36         4.423       0.000
    37         4.902       0.000
   ...
    39         5.538       0.000
(only showing first 3 out of 121 k-points)

No gap
# Writing to Band/gsq-28.gpw (mode='')

