#  __  _  _
# | _ |_)|_||  |
# |__||  | ||/\| - 24.1.0

User:   s194113@n-62-28-16
Date:   Fri Apr 26 14:42:51 2024
Arch:   x86_64
Pid:    5951
CWD:    /work3/s194113/10302/10302_NM/NiI2
Python: 3.8.5
gpaw:   /zhome/87/8/147075/venv-name/gpaw/gpaw (10808453a8)
_gpaw:  /zhome/87/8/147075/venv-name/gpaw/
        _gpaw.cpython-38-x86_64-linux-gnu.so (10808453a8)
ase:    /zhome/87/8/147075/venv-name/ase/ase (version 3.23.0b1-c36115a2db)
numpy:  /zhome/87/8/147075/venv-name/lib/python3.8/site-packages/numpy (version 1.24.4)
scipy:  /zhome/87/8/147075/venv-name/lib/python3.8/site-packages/scipy (version 1.10.1)
libxc:  4.3.4
units:  Angstrom and eV
cores: 12
OpenMP: False
OMP_NUM_THREADS: 1

---
input parameters:
  kpts: 
    density: 6.0
    gamma: True
  magmoms: [[1.28782608, 0, 0], [0.19870794, 0, 0], [0.19870794, 0, 0]]
  mixer: 
    backend: 'pulay'
    beta: 0.05
    method: 'sum'
    nmaxold: 5
    weight: 100
  mode: 
    name: 'pw'
    ecut: 600.0
    qspiral: array([0.10077519, 0.10077519, 0.        ])
  parallel: 
    kpt: None
    domain: 1
    band: 1
    order: 'kdb'
    stridebands: False
    augment_grids: False
    sl_auto: False
    sl_default: None
    sl_diagonalize: None
    sl_inverse_cholesky: None
    sl_lcao: None
    sl_lrtddft: None
    use_elpa: False
    elpasolver: '2stage'
    buffer_size: None
    gpu: False
  symmetry: 
    point_group: False
    time_reversal: False
  xc: 
    name: 'LDA'

#                        
#                        
#                        
#                        
#                        
#              I         
#                        
#        Ni              
#          I             
#                        
#                        
#                        
#                        
#                        

atoms: [  # symbols, positions [Ang] and initial magnetic moments
  [ Ni, [   0.000000,    0.000000,    7.513573], [ 1.288,  0.000,  0.000]], # 0
  [  I, [   1.984831,    1.145943,    9.027147], [ 0.199,  0.000,  0.000]], # 1
  [  I, [   0.000000,    2.291885,    6.000000], [ 0.199,  0.000,  0.000]]] # 2

cell: [  # Ang
#     x            y            z
  [   3.969662,    0.000000,    0.000000],
  [  -1.984831,    3.437828,    0.000000],
  [   0.000000,    0.000000,   15.027147]]

periodic: [True      , True      , False     ]
lengths:  [  3.969662,   3.969662,  15.027147]  # Ang
angles:   [ 90.000000,  90.000000, 120.000000]

symmetry:
  number of symmetries: 1
  rotations: [
    [[ 1,  0,  0], [ 0,  1,  0], [ 0,  0,  1]]]

bz sampling:
  number of bz points: 121
  number of ibz points: 121
  monkhorst-pack size: [11, 11, 1]
  monkhorst-pack shift: [0, 0, 0]
  points and weights: [
    [[ -0.45454545,  -0.45454545,   0.00000000], 0.00826446],  # 0
    [[ -0.45454545,  -0.36363636,   0.00000000], 0.00826446],  # 1
    [[ -0.45454545,  -0.27272727,   0.00000000], 0.00826446],  # 2
    [[ -0.45454545,  -0.18181818,   0.00000000], 0.00826446],  # 3
    [[ -0.45454545,  -0.09090909,   0.00000000], 0.00826446],  # 4
    [[ -0.45454545,   0.00000000,   0.00000000], 0.00826446],  # 5
    [[ -0.45454545,   0.09090909,   0.00000000], 0.00826446],  # 6
    [[ -0.45454545,   0.18181818,   0.00000000], 0.00826446],  # 7
    [[ -0.45454545,   0.27272727,   0.00000000], 0.00826446],  # 8
    [[ -0.45454545,   0.36363636,   0.00000000], 0.00826446],  # 9
    # ...
    [[  0.45454545,   0.45454545,   0.00000000], 0.00826446]]  # 120

plane wave coefficients: 6874
cutoff: 600.0 eV

spin-components: 4  # (non-collinear spins)
bands: 40
valence electrons: 30.0
spin-degeneracy: 1
dtype: complex128

memory:
    wave functions: 1_060_928_000  # bytes  (88_410_666 per core)

parallelization:
    kpt:    12
    domain: 1
    band:   1

density:
  components: 4
  grid points: [24 24 90]
  charge: 0.0  # |e|

potential:
  grid points: [24 24 90]

species:
  Ni:
    name: Nickel
    id: 1802175e8de9ea26d9f4394ec1a7d564
    Z: 28.0
    valence: 16
    core: 12
    charge: 0.0
    file: /zhome/86/d/1666/PAW/gpaw-setups-0.9.20000/Ni.LDA.gz
    compensation charges: {type: gauss,
                           rc: 0.36,
                           lmax: 2}
    cutoffs: {filter: 2.14,
              core: 1.98}
    valence states:
      #              energy  rcut
      - 4s(2.00)    -5.858   1.164
      - 3p(6.00)   -71.266   1.207
      - 4p(0.00)    -1.338   1.207
      - 3d(8.00)    -9.141   1.138
      -  s          21.353   1.164
      -  d          18.071   1.138
  
    # Using partial waves for Ni as LCAO basis

  I:
    name: Iodine
    id: b559721c0c096a7b4c8fc0e0f4de5cf4
    Z: 53.0
    valence: 7
    core: 46
    charge: 0.0
    file: /zhome/86/d/1666/PAW/gpaw-setups-0.9.20000/I.LDA.gz
    compensation charges: {type: gauss,
                           rc: 0.37,
                           lmax: 2}
    cutoffs: {filter: 2.06,
              core: 2.90}
    valence states:
      #              energy  rcut
      - 5s(2.00)   -17.626   1.164
      - 5p(5.00)    -7.241   1.164
      -  s           9.585   1.164
      -  p          19.970   1.164
      -  d           0.000   1.164
  
    # Using partial waves for I as LCAO basis

Reference energy: -428067.566327  # eV

eigensolver:
  name: 'Davidson'
  niter: 2
  converge_bands: 'occupied'
Density mixing:
  Method: sum
  Backend: pulay
  Linear mixing parameter: 0.05
  old densities: 5
  Damping of long wavelength oscillations: 100
occupation numbers:
  Fermi-Dirac:
    width: 0.1000  # eV
  

poisson solver:
  ecut: 4800.0  # eV

xc functional:
  name: None

convergence criteria:
- Maximum [total energy] change in last 3 cyles: 0.0005 eV / valence electron
- Maximum integral of absolute [dens]ity change: 0.0001 electrons / valence electron
- Maximum integral of absolute [eigenst]ate change: 4e-08 eV^2 / valence electron
maximum number of iterations: 333

#      iter     time        total  log10-change:
#                          energy   eigst   dens
# iter:   1 14:43:18   -13.774401                  +1.7,+0.0,+0.0
# iter:   2 14:43:35   -12.665915   -0.36  -1.32   +1.5,-0.0,-0.0
# iter:   3 14:43:51   -12.252802   -0.70  -1.46   +1.5,-0.0,-0.0
# iter:   4 14:44:08   -12.318832   -1.40  -1.68   +1.5,-0.0,-0.0
# iter:   5 14:44:25   -12.500791   -1.57  -1.66   +1.6,+0.0,-0.0
# iter:   6 14:44:41   -12.336354   -1.81  -1.81   +1.6,+0.0,-0.0
# iter:   7 14:44:58   -12.319716   -2.13  -2.17   +1.6,+0.0,-0.0
# iter:   8 14:45:14   -12.313410   -2.39  -2.34   +1.6,+0.0,-0.0
# iter:   9 14:45:31   -12.313220c  -2.54  -2.62   +1.7,+0.0,-0.0
# iter:  10 14:45:48   -12.314664c  -2.84  -3.02   +1.6,+0.0,-0.0
# iter:  11 14:46:05   -12.315385c  -3.04  -2.94   +1.7,+0.0,-0.0
# iter:  12 14:46:21   -12.313914c  -3.18  -2.97   +1.7,+0.0,+0.0
# iter:  13 14:46:38   -12.313940c  -3.38  -3.53   +1.7,+0.0,-0.0
# iter:  14 14:46:54   -12.313877c  -3.54  -3.61   +1.7,+0.0,-0.0
# iter:  15 14:47:11   -12.313879c  -3.70  -3.76   +1.7,+0.0,-0.0
# iter:  16 14:47:27   -12.314300c  -3.85  -3.88   +1.7,+0.0,-0.0
# iter:  17 14:47:44   -12.314359c  -4.01  -4.29c  +1.7,+0.0,-0.0
# iter:  18 14:48:01   -12.314388c  -4.17  -4.26c  +1.7,+0.0,-0.0
# iter:  19 14:48:17   -12.314446c  -4.32  -4.34c  +1.7,+0.0,-0.0
# iter:  20 14:48:34   -12.314442c  -4.46  -4.34c  +1.7,+0.0,-0.0
# iter:  21 14:48:50   -12.314459c  -4.62  -4.45c  +1.7,+0.0,-0.0
# iter:  22 14:49:07   -12.314444c  -4.77  -4.58c  +1.7,+0.0,-0.0
# iter:  23 14:49:23   -12.314481c  -4.92  -4.68c  +1.7,+0.0,-0.0
# iter:  24 14:49:40   -12.314486c  -5.06  -4.60c  +1.7,+0.0,-0.0
# iter:  25 14:49:56   -12.314494c  -5.21  -4.67c  +1.7,+0.0,-0.0
# iter:  26 14:50:13   -12.314497c  -5.36  -4.67c  +1.7,+0.0,-0.0
# iter:  27 14:50:29   -12.314499c  -5.50  -4.67c  +1.7,+0.0,-0.0
# iter:  28 14:50:46   -12.314502c  -5.65  -4.68c  +1.7,+0.0,-0.0
# iter:  29 14:51:02   -12.314495c  -5.80  -4.68c  +1.7,+0.0,-0.0
# iter:  30 14:51:19   -12.314493c  -5.94  -4.67c  +1.7,+0.0,-0.0
# iter:  31 14:51:35   -12.314531c  -6.07  -4.67c  +1.7,+0.0,-0.0
# iter:  32 14:51:52   -12.314606c  -6.15  -4.80c  +1.7,+0.0,-0.0
# iter:  33 14:52:08   -12.314584c  -6.38  -5.20c  +1.7,+0.0,-0.0
# iter:  34 14:52:25   -12.314591c  -6.53  -5.38c  +1.7,+0.0,-0.0
# iter:  35 14:52:41   -12.314592c  -6.67  -5.41c  +1.7,+0.0,-0.0
# iter:  36 14:52:58   -12.314592c  -6.81  -5.45c  +1.7,+0.0,-0.0
# iter:  37 14:53:14   -12.314593c  -6.96  -5.46c  +1.7,+0.0,-0.0
# iter:  38 14:53:31   -12.314598c  -7.09  -5.48c  +1.7,+0.0,-0.0
# iter:  39 14:53:47   -12.314598c  -7.25  -5.66c  +1.7,+0.0,-0.0
# iter:  40 14:54:04   -12.314600c  -7.39  -5.84c  +1.7,+0.0,-0.0
# iter:  41 14:54:21   -12.314604c  -7.53c -6.04c  +1.7,+0.0,-0.0
scf_steps: 41
energies:  # eV
  coulomb:          -7.770049
  zero:              0.066499
  xc:              -14.920844
  external:          0.000000
  kinetic:          10.329379
  spinorbit:         0.000000
  entropy:          -0.039178
  total:           -12.334193
  extrapolated:    -12.314604

dipole moment: [-4.031288, -6.981856, -5.313048]  # |e|*Ang

total magnetic moment: [1.682091, 0.015752, -0.000000]

local magnetic moments: [
  [ 1.139044, -0.006642, -0.000000],  # Ni 0
  [ 0.126589, -0.094048, -0.000000],  # I  1
  [ 0.126579, -0.094061, -0.000000]]  # I  2


Fermi level: -1.183 eV

kpt = [-0.455, -0.455, 0.000], weight = 0.008:
  Band      eig [eV]   occ [0-1]
     0       -64.964       1.000
   ...
    22        -3.115       1.000
    23        -2.968       1.000
    24        -2.906       1.000
    25        -2.293       1.000
    26        -2.150       1.000
    27        -2.127       1.000
    28        -1.678       0.993
    29        -1.631       0.989
    30        -0.703       0.008
    31        -0.686       0.007
    32         1.565       0.000
    33         2.378       0.000
    34         3.620       0.000
    35         4.559       0.000
    36         4.633       0.000
    37         4.763       0.000
   ...
    39         5.312       0.000

kpt = [-0.455, -0.364, 0.000], weight = 0.008:
  Band      eig [eV]   occ [0-1]
     0       -64.964       1.000
   ...
    22        -3.053       1.000
    23        -2.936       1.000
    24        -2.830       1.000
    25        -2.296       1.000
    26        -2.144       1.000
    27        -2.093       1.000
    28        -1.795       0.998
    29        -1.645       0.990
    30        -0.833       0.029
    31        -0.725       0.010
    32         1.806       0.000
    33         2.608       0.000
    34         3.963       0.000
    35         4.537       0.000
    36         4.605       0.000
    37         4.869       0.000
   ...
    39         5.636       0.000

kpt = [-0.455, -0.273, 0.000], weight = 0.008:
  Band      eig [eV]   occ [0-1]
     0       -64.964       1.000
   ...
    22        -3.016       1.000
    23        -2.914       1.000
    24        -2.750       1.000
    25        -2.295       1.000
    26        -2.144       1.000
    27        -2.092       1.000
    28        -1.862       0.999
    29        -1.642       0.990
    30        -0.974       0.110
    31        -0.742       0.012
    32         2.354       0.000
    33         2.544       0.000
    34         4.329       0.000
    35         4.721       0.000
    36         4.924       0.000
    37         4.979       0.000
   ...
    39         5.727       0.000
(only showing first 3 out of 121 k-points)

Gap: 0.187 eV
Transition (v -> c):
  (s=0, k=60, n=29, [0.00, 0.00, 0.00]) -> (s=0, k=24, n=30, [-0.27, -0.27, 0.00])
# Writing to Band/gsq-87.gpw (mode='')

---

timing:  # [seconds]
  Total: 1378.675  # ━━━━━━━━━━━━━━━━━━━━━━━━━━━━━━━━━━━━━━━━━━━━━━━━━━━━━━━━
  Init:    10.761  # ╸
  SCF:    678.315  # ━━━━━━━━━━━━━━━━━━━━━━━━━━━╸

Max RSS: 2950.062  # MiB
