#  __  _  _
# | _ |_)|_||  |
# |__||  | ||/\| - 24.1.0

User:   s194113@n-62-28-16
Date:   Fri Apr 26 08:45:22 2024
Arch:   x86_64
Pid:    5951
CWD:    /work3/s194113/10302/10302_NM/NiI2
Python: 3.8.5
gpaw:   /zhome/87/8/147075/venv-name/gpaw/gpaw (10808453a8)
_gpaw:  /zhome/87/8/147075/venv-name/gpaw/
        _gpaw.cpython-38-x86_64-linux-gnu.so (10808453a8)
ase:    /zhome/87/8/147075/venv-name/ase/ase (version 3.23.0b1-c36115a2db)
numpy:  /zhome/87/8/147075/venv-name/lib/python3.8/site-packages/numpy (version 1.24.4)
scipy:  /zhome/87/8/147075/venv-name/lib/python3.8/site-packages/scipy (version 1.10.1)
libxc:  4.3.4
units:  Angstrom and eV
cores: 12
OpenMP: False
OMP_NUM_THREADS: 1

---
input parameters:
  kpts: 
    density: 6.0
    gamma: True
  magmoms: [[1.28782608, 0, 0], [0.19870794, 0, 0], [0.19870794, 0, 0]]
  mixer: 
    backend: 'pulay'
    beta: 0.05
    method: 'sum'
    nmaxold: 5
    weight: 100
  mode: 
    name: 'pw'
    ecut: 600.0
    qspiral: array([0.31007752, 0.31007752, 0.        ])
  parallel: 
    kpt: None
    domain: 1
    band: 1
    order: 'kdb'
    stridebands: False
    augment_grids: False
    sl_auto: False
    sl_default: None
    sl_diagonalize: None
    sl_inverse_cholesky: None
    sl_lcao: None
    sl_lrtddft: None
    use_elpa: False
    elpasolver: '2stage'
    buffer_size: None
    gpu: False
  symmetry: 
    point_group: False
    time_reversal: False
  xc: 
    name: 'LDA'

#                        
#                        
#                        
#                        
#                        
#              I         
#                        
#        Ni              
#          I             
#                        
#                        
#                        
#                        
#                        

atoms: [  # symbols, positions [Ang] and initial magnetic moments
  [ Ni, [   0.000000,    0.000000,    7.513573], [ 1.288,  0.000,  0.000]], # 0
  [  I, [   1.984831,    1.145943,    9.027147], [ 0.199,  0.000,  0.000]], # 1
  [  I, [   0.000000,    2.291885,    6.000000], [ 0.199,  0.000,  0.000]]] # 2

cell: [  # Ang
#     x            y            z
  [   3.969662,    0.000000,    0.000000],
  [  -1.984831,    3.437828,    0.000000],
  [   0.000000,    0.000000,   15.027147]]

periodic: [True      , True      , False     ]
lengths:  [  3.969662,   3.969662,  15.027147]  # Ang
angles:   [ 90.000000,  90.000000, 120.000000]

symmetry:
  number of symmetries: 1
  rotations: [
    [[ 1,  0,  0], [ 0,  1,  0], [ 0,  0,  1]]]

bz sampling:
  number of bz points: 121
  number of ibz points: 121
  monkhorst-pack size: [11, 11, 1]
  monkhorst-pack shift: [0, 0, 0]
  points and weights: [
    [[ -0.45454545,  -0.45454545,   0.00000000], 0.00826446],  # 0
    [[ -0.45454545,  -0.36363636,   0.00000000], 0.00826446],  # 1
    [[ -0.45454545,  -0.27272727,   0.00000000], 0.00826446],  # 2
    [[ -0.45454545,  -0.18181818,   0.00000000], 0.00826446],  # 3
    [[ -0.45454545,  -0.09090909,   0.00000000], 0.00826446],  # 4
    [[ -0.45454545,   0.00000000,   0.00000000], 0.00826446],  # 5
    [[ -0.45454545,   0.09090909,   0.00000000], 0.00826446],  # 6
    [[ -0.45454545,   0.18181818,   0.00000000], 0.00826446],  # 7
    [[ -0.45454545,   0.27272727,   0.00000000], 0.00826446],  # 8
    [[ -0.45454545,   0.36363636,   0.00000000], 0.00826446],  # 9
    # ...
    [[  0.45454545,   0.45454545,   0.00000000], 0.00826446]]  # 120

plane wave coefficients: 6874
cutoff: 600.0 eV

spin-components: 4  # (non-collinear spins)
bands: 40
valence electrons: 30.0
spin-degeneracy: 1
dtype: complex128

memory:
    wave functions: 1_060_928_000  # bytes  (88_410_666 per core)

parallelization:
    kpt:    12
    domain: 1
    band:   1

density:
  components: 4
  grid points: [24 24 90]
  charge: 0.0  # |e|

potential:
  grid points: [24 24 90]

species:
  Ni:
    name: Nickel
    id: 1802175e8de9ea26d9f4394ec1a7d564
    Z: 28.0
    valence: 16
    core: 12
    charge: 0.0
    file: /zhome/86/d/1666/PAW/gpaw-setups-0.9.20000/Ni.LDA.gz
    compensation charges: {type: gauss,
                           rc: 0.36,
                           lmax: 2}
    cutoffs: {filter: 2.14,
              core: 1.98}
    valence states:
      #              energy  rcut
      - 4s(2.00)    -5.858   1.164
      - 3p(6.00)   -71.266   1.207
      - 4p(0.00)    -1.338   1.207
      - 3d(8.00)    -9.141   1.138
      -  s          21.353   1.164
      -  d          18.071   1.138
  
    # Using partial waves for Ni as LCAO basis

  I:
    name: Iodine
    id: b559721c0c096a7b4c8fc0e0f4de5cf4
    Z: 53.0
    valence: 7
    core: 46
    charge: 0.0
    file: /zhome/86/d/1666/PAW/gpaw-setups-0.9.20000/I.LDA.gz
    compensation charges: {type: gauss,
                           rc: 0.37,
                           lmax: 2}
    cutoffs: {filter: 2.06,
              core: 2.90}
    valence states:
      #              energy  rcut
      - 5s(2.00)   -17.626   1.164
      - 5p(5.00)    -7.241   1.164
      -  s           9.585   1.164
      -  p          19.970   1.164
      -  d           0.000   1.164
  
    # Using partial waves for I as LCAO basis

Reference energy: -428067.566327  # eV

eigensolver:
  name: 'Davidson'
  niter: 2
  converge_bands: 'occupied'
Density mixing:
  Method: sum
  Backend: pulay
  Linear mixing parameter: 0.05
  old densities: 5
  Damping of long wavelength oscillations: 100
occupation numbers:
  Fermi-Dirac:
    width: 0.1000  # eV
  

poisson solver:
  ecut: 4800.0  # eV

xc functional:
  name: None

convergence criteria:
- Maximum [total energy] change in last 3 cyles: 0.0005 eV / valence electron
- Maximum integral of absolute [dens]ity change: 0.0001 electrons / valence electron
- Maximum integral of absolute [eigenst]ate change: 4e-08 eV^2 / valence electron
maximum number of iterations: 333

#      iter     time        total  log10-change:
#                          energy   eigst   dens
# iter:   1 08:45:48   -12.734820                  +1.7,+0.0,+0.0
# iter:   2 08:46:05   -12.441169   +0.40  -1.31   +1.1,-0.0,+0.0
# iter:   3 08:46:22   -12.187100   -0.27  -1.45   +1.0,-0.0,+0.0
# iter:   4 08:46:38   -12.237716   -0.81  -1.68   +1.0,-0.0,+0.0
# iter:   5 08:46:55   -12.545594   -0.99  -1.68   +1.0,-0.0,-0.0
# iter:   6 08:47:12   -12.292451   -1.23  -1.73   +1.0,-0.0,+0.0
# iter:   7 08:47:28   -12.302517   -1.49  -2.25   +1.0,+0.0,-0.0
# iter:   8 08:47:45   -12.288231c  -1.64  -2.30   +1.0,+0.0,-0.0
# iter:   9 08:48:01   -12.289931c  -1.81  -2.77   +1.0,+0.0,-0.0
# iter:  10 08:48:18   -12.290315c  -1.97  -3.04   +1.1,+0.0,+0.0
# iter:  11 08:48:34   -12.291567c  -2.10  -3.12   +1.1,+0.0,-0.0
# iter:  12 08:48:51   -12.292083c  -2.24  -3.17   +1.1,+0.0,-0.0
# iter:  13 08:49:07   -12.292479c  -2.38  -3.66   +1.1,+0.0,-0.0
# iter:  14 08:49:24   -12.292595c  -2.50  -3.59   +1.1,+0.0,-0.0
# iter:  15 08:49:40   -12.292794c  -2.65  -3.59   +1.1,+0.0,-0.0
# iter:  16 08:49:57   -12.292863c  -2.78  -3.91   +1.1,+0.0,-0.0
# iter:  17 08:50:13   -12.292886c  -2.90  -3.91   +1.1,+0.0,-0.0
# iter:  18 08:50:30   -12.292953c  -3.03  -3.94   +1.1,+0.0,-0.0
# iter:  19 08:50:46   -12.292995c  -3.16  -3.95   +1.1,+0.0,-0.0
# iter:  20 08:51:03   -12.293047c  -3.29  -4.02c  +1.1,+0.0,-0.0
# iter:  21 08:51:20   -12.293138c  -3.42  -4.09c  +1.1,+0.0,-0.0
# iter:  22 08:51:36   -12.293195c  -3.54  -4.17c  +1.1,+0.0,-0.0
# iter:  23 08:51:52   -12.293266c  -3.67  -4.26c  +1.1,+0.0,-0.0
# iter:  24 08:52:09   -12.293414c  -3.80  -4.39c  +1.1,+0.0,-0.0
# iter:  25 08:52:25   -12.293471c  -3.93  -4.42c  +1.1,+0.0,-0.0
# iter:  26 08:52:42   -12.293507c  -4.06  -4.65c  +1.1,+0.0,-0.0
# iter:  27 08:52:58   -12.293518c  -4.18  -4.70c  +1.1,+0.0,-0.0
# iter:  28 08:53:15   -12.293522c  -4.30  -4.71c  +1.1,+0.0,-0.0
# iter:  29 08:53:31   -12.293525c  -4.43  -4.71c  +1.1,+0.0,-0.0
# iter:  30 08:53:48   -12.293528c  -4.56  -4.71c  +1.1,+0.0,-0.0
# iter:  31 08:54:04   -12.293530c  -4.69  -4.70c  +1.1,+0.0,-0.0
# iter:  32 08:54:21   -12.293519c  -4.82  -4.72c  +1.1,+0.0,-0.0
# iter:  33 08:54:37   -12.293541c  -4.95  -4.70c  +1.1,+0.0,-0.0
# iter:  34 08:54:54   -12.293578c  -5.07  -4.75c  +1.1,+0.0,-0.0
# iter:  35 08:55:10   -12.293597c  -5.20  -4.85c  +1.1,+0.0,-0.0
# iter:  36 08:55:27   -12.293619c  -5.33  -4.97c  +1.1,+0.0,-0.0
# iter:  37 08:55:43   -12.293622c  -5.46  -5.06c  +1.1,+0.0,-0.0
# iter:  38 08:56:00   -12.293620c  -5.59  -5.14c  +1.1,+0.0,-0.0
# iter:  39 08:56:16   -12.293620c  -5.72  -5.16c  +1.1,+0.0,-0.0
# iter:  40 08:56:32   -12.293619c  -5.85  -5.27c  +1.1,+0.0,-0.0
# iter:  41 08:56:49   -12.293619c  -5.99  -5.40c  +1.1,+0.0,-0.0
# iter:  42 08:57:05   -12.293621c  -6.12  -5.42c  +1.1,+0.0,-0.0
# iter:  43 08:57:21   -12.293634c  -6.25  -5.44c  +1.1,+0.0,-0.0
# iter:  44 08:57:38   -12.293638c  -6.38  -5.63c  +1.1,+0.0,-0.0
# iter:  45 08:57:54   -12.293640c  -6.51  -5.82c  +1.1,+0.0,-0.0
# iter:  46 08:58:10   -12.293640c  -6.64  -6.21c  +1.1,+0.0,-0.0
# iter:  47 08:58:27   -12.293640c  -6.77  -6.28c  +1.1,+0.0,-0.0
# iter:  48 08:58:43   -12.293642c  -6.91  -6.29c  +1.1,+0.0,-0.0
# iter:  49 08:58:59   -12.293643c  -7.05  -6.39c  +1.1,+0.0,-0.0
# iter:  50 08:59:15   -12.293643c  -7.19  -6.50c  +1.1,+0.0,-0.0
# iter:  51 08:59:32   -12.293643c  -7.33  -6.50c  +1.1,+0.0,-0.0
# iter:  52 08:59:48   -12.293643c  -7.46c -6.54c  +1.1,+0.0,-0.0
scf_steps: 52
energies:  # eV
  coulomb:          -7.680517
  zero:              0.066770
  xc:              -14.875630
  external:          0.000000
  kinetic:          10.217232
  spinorbit:         0.000000
  entropy:          -0.042995
  total:           -12.315140
  extrapolated:    -12.293643

dipole moment: [-3.437977, -5.954121, -0.859582]  # |e|*Ang

total magnetic moment: [1.091508, 0.002855, -0.000000]

local magnetic moments: [
  [ 1.111705, -0.000994, -0.000000],  # Ni 0
  [-0.005561, -0.014070, -0.000000],  # I  1
  [-0.005618, -0.014048, -0.000000]]  # I  2


Fermi level: -1.200 eV

kpt = [-0.455, -0.455, 0.000], weight = 0.008:
  Band      eig [eV]   occ [0-1]
     0       -64.939       1.000
   ...
    22        -3.013       1.000
    23        -2.800       1.000
    24        -2.799       1.000
    25        -2.343       1.000
    26        -2.115       1.000
    27        -2.110       1.000
    28        -1.815       0.998
    29        -1.800       0.998
    30        -0.931       0.063
    31        -0.921       0.058
    32         2.434       0.000
    33         2.617       0.000
    34         4.580       0.000
    35         4.787       0.000
    36         4.842       0.000
    37         5.182       0.000
   ...
    39         5.784       0.000

kpt = [-0.455, -0.364, 0.000], weight = 0.008:
  Band      eig [eV]   occ [0-1]
     0       -64.939       1.000
   ...
    22        -2.936       1.000
    23        -2.879       1.000
    24        -2.796       1.000
    25        -2.420       1.000
    26        -2.193       1.000
    27        -2.113       1.000
    28        -1.723       0.995
    29        -1.605       0.983
    30        -0.904       0.049
    31        -0.783       0.015
    32         2.054       0.000
    33         2.571       0.000
    34         4.258       0.000
    35         4.329       0.000
    36         4.765       0.000
    37         4.932       0.000
   ...
    39         5.385       0.000

kpt = [-0.455, -0.273, 0.000], weight = 0.008:
  Band      eig [eV]   occ [0-1]
     0       -64.939       1.000
   ...
    22        -2.984       1.000
    23        -2.888       1.000
    24        -2.775       1.000
    25        -2.406       1.000
    26        -2.264       1.000
    27        -2.094       1.000
    28        -1.605       0.983
    29        -1.435       0.913
    30        -0.881       0.040
    31        -0.656       0.004
    32         1.744       0.000
    33         2.316       0.000
    34         3.752       0.000
    35         4.150       0.000
    36         4.387       0.000
    37         4.601       0.000
   ...
    39         5.054       0.000
(only showing first 3 out of 121 k-points)

Gap: 0.419 eV
Transition (v -> c):
  (s=0, k=113, n=29, [0.45, -0.18, 0.00]) -> (s=0, k=110, n=30, [0.45, -0.45, 0.00])
# Writing to Band/gsq-60.gpw (mode='')

