#  __  _  _
# | _ |_)|_||  |
# |__||  | ||/\| - 24.1.0

User:   s194113@n-62-28-16
Date:   Fri Apr 26 16:30:14 2024
Arch:   x86_64
Pid:    5951
CWD:    /work3/s194113/10302/10302_NM/NiI2
Python: 3.8.5
gpaw:   /zhome/87/8/147075/venv-name/gpaw/gpaw (10808453a8)
_gpaw:  /zhome/87/8/147075/venv-name/gpaw/
        _gpaw.cpython-38-x86_64-linux-gnu.so (10808453a8)
ase:    /zhome/87/8/147075/venv-name/ase/ase (version 3.23.0b1-c36115a2db)
numpy:  /zhome/87/8/147075/venv-name/lib/python3.8/site-packages/numpy (version 1.24.4)
scipy:  /zhome/87/8/147075/venv-name/lib/python3.8/site-packages/scipy (version 1.10.1)
libxc:  4.3.4
units:  Angstrom and eV
cores: 12
OpenMP: False
OMP_NUM_THREADS: 1

---
input parameters:
  kpts: 
    density: 6.0
    gamma: True
  magmoms: [[1.28782608, 0, 0], [0.19870794, 0, 0], [0.19870794, 0, 0]]
  mixer: 
    backend: 'pulay'
    beta: 0.05
    method: 'sum'
    nmaxold: 5
    weight: 100
  mode: 
    name: 'pw'
    ecut: 600.0
    qspiral: array([0.02325581, 0.02325581, 0.        ])
  parallel: 
    kpt: None
    domain: 1
    band: 1
    order: 'kdb'
    stridebands: False
    augment_grids: False
    sl_auto: False
    sl_default: None
    sl_diagonalize: None
    sl_inverse_cholesky: None
    sl_lcao: None
    sl_lrtddft: None
    use_elpa: False
    elpasolver: '2stage'
    buffer_size: None
    gpu: False
  symmetry: 
    point_group: False
    time_reversal: False
  xc: 
    name: 'LDA'

#                        
#                        
#                        
#                        
#                        
#              I         
#                        
#        Ni              
#          I             
#                        
#                        
#                        
#                        
#                        

atoms: [  # symbols, positions [Ang] and initial magnetic moments
  [ Ni, [   0.000000,    0.000000,    7.513573], [ 1.288,  0.000,  0.000]], # 0
  [  I, [   1.984831,    1.145943,    9.027147], [ 0.199,  0.000,  0.000]], # 1
  [  I, [   0.000000,    2.291885,    6.000000], [ 0.199,  0.000,  0.000]]] # 2

cell: [  # Ang
#     x            y            z
  [   3.969662,    0.000000,    0.000000],
  [  -1.984831,    3.437828,    0.000000],
  [   0.000000,    0.000000,   15.027147]]

periodic: [True      , True      , False     ]
lengths:  [  3.969662,   3.969662,  15.027147]  # Ang
angles:   [ 90.000000,  90.000000, 120.000000]

symmetry:
  number of symmetries: 1
  rotations: [
    [[ 1,  0,  0], [ 0,  1,  0], [ 0,  0,  1]]]

bz sampling:
  number of bz points: 121
  number of ibz points: 121
  monkhorst-pack size: [11, 11, 1]
  monkhorst-pack shift: [0, 0, 0]
  points and weights: [
    [[ -0.45454545,  -0.45454545,   0.00000000], 0.00826446],  # 0
    [[ -0.45454545,  -0.36363636,   0.00000000], 0.00826446],  # 1
    [[ -0.45454545,  -0.27272727,   0.00000000], 0.00826446],  # 2
    [[ -0.45454545,  -0.18181818,   0.00000000], 0.00826446],  # 3
    [[ -0.45454545,  -0.09090909,   0.00000000], 0.00826446],  # 4
    [[ -0.45454545,   0.00000000,   0.00000000], 0.00826446],  # 5
    [[ -0.45454545,   0.09090909,   0.00000000], 0.00826446],  # 6
    [[ -0.45454545,   0.18181818,   0.00000000], 0.00826446],  # 7
    [[ -0.45454545,   0.27272727,   0.00000000], 0.00826446],  # 8
    [[ -0.45454545,   0.36363636,   0.00000000], 0.00826446],  # 9
    # ...
    [[  0.45454545,   0.45454545,   0.00000000], 0.00826446]]  # 120

plane wave coefficients: 6874
cutoff: 600.0 eV

spin-components: 4  # (non-collinear spins)
bands: 40
valence electrons: 30.0
spin-degeneracy: 1
dtype: complex128

memory:
    wave functions: 1_060_928_000  # bytes  (88_410_666 per core)

parallelization:
    kpt:    12
    domain: 1
    band:   1

density:
  components: 4
  grid points: [24 24 90]
  charge: 0.0  # |e|

potential:
  grid points: [24 24 90]

species:
  Ni:
    name: Nickel
    id: 1802175e8de9ea26d9f4394ec1a7d564
    Z: 28.0
    valence: 16
    core: 12
    charge: 0.0
    file: /zhome/86/d/1666/PAW/gpaw-setups-0.9.20000/Ni.LDA.gz
    compensation charges: {type: gauss,
                           rc: 0.36,
                           lmax: 2}
    cutoffs: {filter: 2.14,
              core: 1.98}
    valence states:
      #              energy  rcut
      - 4s(2.00)    -5.858   1.164
      - 3p(6.00)   -71.266   1.207
      - 4p(0.00)    -1.338   1.207
      - 3d(8.00)    -9.141   1.138
      -  s          21.353   1.164
      -  d          18.071   1.138
  
    # Using partial waves for Ni as LCAO basis

  I:
    name: Iodine
    id: b559721c0c096a7b4c8fc0e0f4de5cf4
    Z: 53.0
    valence: 7
    core: 46
    charge: 0.0
    file: /zhome/86/d/1666/PAW/gpaw-setups-0.9.20000/I.LDA.gz
    compensation charges: {type: gauss,
                           rc: 0.37,
                           lmax: 2}
    cutoffs: {filter: 2.06,
              core: 2.90}
    valence states:
      #              energy  rcut
      - 5s(2.00)   -17.626   1.164
      - 5p(5.00)    -7.241   1.164
      -  s           9.585   1.164
      -  p          19.970   1.164
      -  d           0.000   1.164
  
    # Using partial waves for I as LCAO basis

Reference energy: -428067.566327  # eV

eigensolver:
  name: 'Davidson'
  niter: 2
  converge_bands: 'occupied'
Density mixing:
  Method: sum
  Backend: pulay
  Linear mixing parameter: 0.05
  old densities: 5
  Damping of long wavelength oscillations: 100
occupation numbers:
  Fermi-Dirac:
    width: 0.1000  # eV
  

poisson solver:
  ecut: 4800.0  # eV

xc functional:
  name: None

convergence criteria:
- Maximum [total energy] change in last 3 cyles: 0.0005 eV / valence electron
- Maximum integral of absolute [dens]ity change: 0.0001 electrons / valence electron
- Maximum integral of absolute [eigenst]ate change: 4e-08 eV^2 / valence electron
maximum number of iterations: 333

#      iter     time        total  log10-change:
#                          energy   eigst   dens
# iter:   1 16:30:40   -13.875252                  +1.7,+0.0,+0.0
# iter:   2 16:30:57   -12.662191   -0.54  -1.32   +1.5,-0.0,+0.0
# iter:   3 16:31:13   -12.238269   -0.75  -1.46   +1.5,-0.0,+0.0
# iter:   4 16:31:30   -12.296579   -1.31  -1.68   +1.6,-0.0,-0.0
# iter:   5 16:31:46   -12.498306   -1.49  -1.66   +1.6,+0.0,-0.0
# iter:   6 16:32:03   -12.302608   -1.72  -1.78   +1.7,+0.0,-0.0
# iter:   7 16:32:19   -12.288319   -2.06  -2.19   +1.7,+0.0,+0.0
# iter:   8 16:32:36   -12.303701   -2.32  -2.36   +1.7,+0.0,+0.0
# iter:   9 16:32:52   -12.287637   -2.42  -2.27   +1.8,+0.0,+0.0
# iter:  10 16:33:08   -12.288173   -2.76  -2.91   +1.8,+0.0,-0.0
# iter:  11 16:33:25   -12.288215c  -2.98  -3.05   +1.8,+0.0,+0.0
# iter:  12 16:33:41   -12.290412c  -3.16  -3.02   +1.8,+0.0,-0.0
# iter:  13 16:33:58   -12.290443c  -3.37  -3.51   +1.8,+0.0,+0.0
# iter:  14 16:34:14   -12.290340c  -3.50  -3.57   +1.8,+0.0,+0.0
# iter:  15 16:34:31   -12.290964c  -3.71  -3.43   +1.8,+0.0,+0.0
# iter:  16 16:34:47   -12.291006c  -3.87  -3.91   +1.8,+0.0,+0.0
# iter:  17 16:35:04   -12.291023c  -4.04  -3.98   +1.8,+0.0,+0.0
# iter:  18 16:35:20   -12.291273c  -4.21  -4.07c  +1.8,+0.0,+0.0
# iter:  19 16:35:36   -12.291335c  -4.37  -4.13c  +1.8,+0.0,+0.0
# iter:  20 16:35:53   -12.291435c  -4.54  -4.21c  +1.8,+0.0,+0.0
# iter:  21 16:36:09   -12.291516c  -4.70  -4.34c  +1.8,+0.0,+0.0
# iter:  22 16:36:26   -12.291645c  -4.87  -4.45c  +1.8,+0.0,+0.0
# iter:  23 16:36:42   -12.291739c  -5.05  -4.49c  +1.8,+0.0,+0.0
# iter:  24 16:36:58   -12.291828c  -5.20  -4.58c  +1.8,+0.0,+0.0
# iter:  25 16:37:15   -12.291791c  -5.39  -4.74c  +1.8,+0.0,+0.0
# iter:  26 16:37:31   -12.291816c  -5.55  -4.84c  +1.8,+0.0,+0.0
# iter:  27 16:37:47   -12.291834c  -5.71  -4.94c  +1.8,+0.0,+0.0
# iter:  28 16:38:04   -12.291833c  -5.87  -5.09c  +1.8,+0.0,+0.0
# iter:  29 16:38:20   -12.291844c  -6.04  -5.26c  +1.8,+0.0,+0.0
# iter:  30 16:38:37   -12.291852c  -6.20  -5.51c  +1.8,+0.0,+0.0
# iter:  31 16:38:53   -12.291854c  -6.35  -5.65c  +1.8,+0.0,+0.0
# iter:  32 16:39:09   -12.291855c  -6.51  -5.87c  +1.8,+0.0,+0.0
# iter:  33 16:39:26   -12.291856c  -6.66  -5.95c  +1.8,+0.0,+0.0
# iter:  34 16:39:42   -12.291858c  -6.82  -6.01c  +1.8,+0.0,+0.0
# iter:  35 16:39:58   -12.291860c  -6.97  -6.05c  +1.8,+0.0,+0.0
# iter:  36 16:40:14   -12.291862c  -7.13  -6.13c  +1.8,+0.0,+0.0
# iter:  37 16:40:31   -12.291862c  -7.29  -6.27c  +1.8,+0.0,+0.0
# iter:  38 16:40:47   -12.291861c  -7.44c -6.31c  +1.8,+0.0,+0.0
scf_steps: 38
energies:  # eV
  coulomb:          -8.080463
  zero:              0.066051
  xc:              -14.961992
  external:          0.000000
  kinetic:          10.710946
  spinorbit:         0.000000
  entropy:          -0.052807
  total:           -12.318265
  extrapolated:    -12.291861

dipole moment: [-4.162501, -7.209519, -6.368046]  # |e|*Ang

total magnetic moment: [1.812293, 0.004555, 0.000000]

local magnetic moments: [
  [ 1.147133, -0.001755,  0.000000],  # Ni 0
  [ 0.180446, -0.026840,  0.000000],  # I  1
  [ 0.180447, -0.026836,  0.000000]]  # I  2


Fermi level: -1.182 eV

kpt = [-0.455, -0.455, 0.000], weight = 0.008:
  Band      eig [eV]   occ [0-1]
     0       -64.977       1.000
   ...
    22        -3.136       1.000
    23        -3.007       1.000
    24        -2.903       1.000
    25        -2.293       1.000
    26        -2.162       1.000
    27        -2.130       1.000
    28        -1.615       0.987
    29        -1.579       0.982
    30        -0.674       0.006
    31        -0.669       0.006
    32         1.680       0.000
    33         2.004       0.000
    34         3.852       0.000
    35         4.244       0.000
    36         4.606       0.000
    37         4.678       0.000
   ...
    39         4.951       0.000

kpt = [-0.455, -0.364, 0.000], weight = 0.008:
  Band      eig [eV]   occ [0-1]
     0       -64.977       1.000
   ...
    22        -3.073       1.000
    23        -2.947       1.000
    24        -2.793       1.000
    25        -2.245       1.000
    26        -2.139       1.000
    27        -2.043       1.000
    28        -1.904       0.999
    29        -1.655       0.991
    30        -0.934       0.077
    31        -0.707       0.009
    32         2.198       0.000
    33         2.506       0.000
    34         4.460       0.000
    35         4.578       0.000
    36         4.921       0.000
    37         5.053       0.000
   ...
    39         5.351       0.000

kpt = [-0.455, -0.273, 0.000], weight = 0.008:
  Band      eig [eV]   occ [0-1]
     0       -64.977       1.000
   ...
    22        -3.059       1.000
    23        -2.917       1.000
    24        -2.733       1.000
    25        -2.237       1.000
    26        -2.130       1.000
    27        -2.065       1.000
    28        -1.981       1.000
    29        -1.684       0.993
    30        -1.048       0.207
    31        -0.731       0.011
    32         2.519       0.000
    33         2.742       0.000
    34         4.263       0.000
    35         4.427       0.000
    36         5.318       0.000
    37         5.454       0.000
   ...
    39         5.917       0.000
(only showing first 3 out of 121 k-points)

No gap
# Writing to Band/gsq-97.gpw (mode='')

---

timing:  # [seconds]
  Total: 633.302  # ━━━━━━━━━━━━━━━━━━━━━━━━━━━━━━━━━━━━━━━━━━━━━━━━━━━━━━━━━
  Init:   10.696  # ━
  SCF:   622.233  # ━━━━━━━━━━━━━━━━━━━━━━━━━━━━━━━━━━━━━━━━━━━━━━━━━━━━━━━━

Max RSS: 2974.676  # MiB
