#  __  _  _
# | _ |_)|_||  |
# |__||  | ||/\| - 24.1.0

User:   s194113@n-62-28-16
Date:   Fri Apr 26 05:37:18 2024
Arch:   x86_64
Pid:    5951
CWD:    /work3/s194113/10302/10302_NM/NiI2
Python: 3.8.5
gpaw:   /zhome/87/8/147075/venv-name/gpaw/gpaw (10808453a8)
_gpaw:  /zhome/87/8/147075/venv-name/gpaw/
        _gpaw.cpython-38-x86_64-linux-gnu.so (10808453a8)
ase:    /zhome/87/8/147075/venv-name/ase/ase (version 3.23.0b1-c36115a2db)
numpy:  /zhome/87/8/147075/venv-name/lib/python3.8/site-packages/numpy (version 1.24.4)
scipy:  /zhome/87/8/147075/venv-name/lib/python3.8/site-packages/scipy (version 1.10.1)
libxc:  4.3.4
units:  Angstrom and eV
cores: 12
OpenMP: False
OMP_NUM_THREADS: 1

---
input parameters:
  kpts: 
    density: 6.0
    gamma: True
  magmoms: [[1.28782608, 0, 0], [0.19870794, 0, 0], [0.19870794, 0, 0]]
  mixer: 
    backend: 'pulay'
    beta: 0.05
    method: 'sum'
    nmaxold: 5
    weight: 100
  mode: 
    name: 'pw'
    ecut: 600.0
    qspiral: array([0.41269841, 0.17460317, 0.        ])
  parallel: 
    kpt: None
    domain: 1
    band: 1
    order: 'kdb'
    stridebands: False
    augment_grids: False
    sl_auto: False
    sl_default: None
    sl_diagonalize: None
    sl_inverse_cholesky: None
    sl_lcao: None
    sl_lrtddft: None
    use_elpa: False
    elpasolver: '2stage'
    buffer_size: None
    gpu: False
  symmetry: 
    point_group: False
    time_reversal: False
  xc: 
    name: 'LDA'

#                        
#                        
#                        
#                        
#                        
#              I         
#                        
#        Ni              
#          I             
#                        
#                        
#                        
#                        
#                        

atoms: [  # symbols, positions [Ang] and initial magnetic moments
  [ Ni, [   0.000000,    0.000000,    7.513573], [ 1.288,  0.000,  0.000]], # 0
  [  I, [   1.984831,    1.145943,    9.027147], [ 0.199,  0.000,  0.000]], # 1
  [  I, [   0.000000,    2.291885,    6.000000], [ 0.199,  0.000,  0.000]]] # 2

cell: [  # Ang
#     x            y            z
  [   3.969662,    0.000000,    0.000000],
  [  -1.984831,    3.437828,    0.000000],
  [   0.000000,    0.000000,   15.027147]]

periodic: [True      , True      , False     ]
lengths:  [  3.969662,   3.969662,  15.027147]  # Ang
angles:   [ 90.000000,  90.000000, 120.000000]

symmetry:
  number of symmetries: 1
  rotations: [
    [[ 1,  0,  0], [ 0,  1,  0], [ 0,  0,  1]]]

bz sampling:
  number of bz points: 121
  number of ibz points: 121
  monkhorst-pack size: [11, 11, 1]
  monkhorst-pack shift: [0, 0, 0]
  points and weights: [
    [[ -0.45454545,  -0.45454545,   0.00000000], 0.00826446],  # 0
    [[ -0.45454545,  -0.36363636,   0.00000000], 0.00826446],  # 1
    [[ -0.45454545,  -0.27272727,   0.00000000], 0.00826446],  # 2
    [[ -0.45454545,  -0.18181818,   0.00000000], 0.00826446],  # 3
    [[ -0.45454545,  -0.09090909,   0.00000000], 0.00826446],  # 4
    [[ -0.45454545,   0.00000000,   0.00000000], 0.00826446],  # 5
    [[ -0.45454545,   0.09090909,   0.00000000], 0.00826446],  # 6
    [[ -0.45454545,   0.18181818,   0.00000000], 0.00826446],  # 7
    [[ -0.45454545,   0.27272727,   0.00000000], 0.00826446],  # 8
    [[ -0.45454545,   0.36363636,   0.00000000], 0.00826446],  # 9
    # ...
    [[  0.45454545,   0.45454545,   0.00000000], 0.00826446]]  # 120

plane wave coefficients: 6874
cutoff: 600.0 eV

spin-components: 4  # (non-collinear spins)
bands: 40
valence electrons: 30.0
spin-degeneracy: 1
dtype: complex128

memory:
    wave functions: 1_060_928_000  # bytes  (88_410_666 per core)

parallelization:
    kpt:    12
    domain: 1
    band:   1

density:
  components: 4
  grid points: [24 24 90]
  charge: 0.0  # |e|

potential:
  grid points: [24 24 90]

species:
  Ni:
    name: Nickel
    id: 1802175e8de9ea26d9f4394ec1a7d564
    Z: 28.0
    valence: 16
    core: 12
    charge: 0.0
    file: /zhome/86/d/1666/PAW/gpaw-setups-0.9.20000/Ni.LDA.gz
    compensation charges: {type: gauss,
                           rc: 0.36,
                           lmax: 2}
    cutoffs: {filter: 2.14,
              core: 1.98}
    valence states:
      #              energy  rcut
      - 4s(2.00)    -5.858   1.164
      - 3p(6.00)   -71.266   1.207
      - 4p(0.00)    -1.338   1.207
      - 3d(8.00)    -9.141   1.138
      -  s          21.353   1.164
      -  d          18.071   1.138
  
    # Using partial waves for Ni as LCAO basis

  I:
    name: Iodine
    id: b559721c0c096a7b4c8fc0e0f4de5cf4
    Z: 53.0
    valence: 7
    core: 46
    charge: 0.0
    file: /zhome/86/d/1666/PAW/gpaw-setups-0.9.20000/I.LDA.gz
    compensation charges: {type: gauss,
                           rc: 0.37,
                           lmax: 2}
    cutoffs: {filter: 2.06,
              core: 2.90}
    valence states:
      #              energy  rcut
      - 5s(2.00)   -17.626   1.164
      - 5p(5.00)    -7.241   1.164
      -  s           9.585   1.164
      -  p          19.970   1.164
      -  d           0.000   1.164
  
    # Using partial waves for I as LCAO basis

Reference energy: -428067.566327  # eV

eigensolver:
  name: 'Davidson'
  niter: 2
  converge_bands: 'occupied'
Density mixing:
  Method: sum
  Backend: pulay
  Linear mixing parameter: 0.05
  old densities: 5
  Damping of long wavelength oscillations: 100
occupation numbers:
  Fermi-Dirac:
    width: 0.1000  # eV
  

poisson solver:
  ecut: 4800.0  # eV

xc functional:
  name: None

convergence criteria:
- Maximum [total energy] change in last 3 cyles: 0.0005 eV / valence electron
- Maximum integral of absolute [dens]ity change: 0.0001 electrons / valence electron
- Maximum integral of absolute [eigenst]ate change: 4e-08 eV^2 / valence electron
maximum number of iterations: 333

#      iter     time        total  log10-change:
#                          energy   eigst   dens
# iter:   1 05:37:45   -12.798305                  +1.7,+0.0,+0.0
# iter:   2 05:38:01   -12.438851   +0.37  -1.31   +1.1,-0.0,-0.0
# iter:   3 05:38:18   -12.174961   -0.28  -1.45   +1.0,-0.0,-0.0
# iter:   4 05:38:35   -12.226540   -0.83  -1.68   +1.0,-0.0,+0.0
# iter:   5 05:38:52   -12.560230   -1.00  -1.68   +1.0,-0.0,-0.0
# iter:   6 05:39:09   -12.274495   -1.23  -1.70   +1.0,-0.0,+0.0
# iter:   7 05:39:25   -12.282095   -1.50  -2.24   +1.0,+0.0,+0.0
# iter:   8 05:39:42   -12.270985c  -1.66  -2.31   +1.0,+0.0,+0.0
# iter:   9 05:39:59   -12.272823c  -1.82  -2.72   +1.1,+0.0,+0.0
# iter:  10 05:40:15   -12.273386c  -1.99  -3.04   +1.1,+0.0,+0.0
# iter:  11 05:40:32   -12.274693c  -2.12  -3.09   +1.1,+0.0,+0.0
# iter:  12 05:40:49   -12.275267c  -2.28  -3.04   +1.1,+0.0,+0.0
# iter:  13 05:41:05   -12.275792c  -2.41  -3.66   +1.1,+0.0,+0.0
# iter:  14 05:41:22   -12.275779c  -2.54  -3.58   +1.1,+0.0,+0.0
# iter:  15 05:41:39   -12.276085c  -2.68  -3.54   +1.1,+0.0,+0.0
# iter:  16 05:41:55   -12.276219c  -2.81  -3.90   +1.1,+0.0,+0.0
# iter:  17 05:42:12   -12.276219c  -2.94  -3.89   +1.1,+0.0,+0.0
# iter:  18 05:42:29   -12.276329c  -3.08  -3.92   +1.1,+0.0,+0.0
# iter:  19 05:42:45   -12.276395c  -3.20  -3.94   +1.1,+0.0,+0.0
# iter:  20 05:43:02   -12.276457c  -3.33  -4.01c  +1.1,+0.0,-0.0
# iter:  21 05:43:19   -12.276547c  -3.46  -4.10c  +1.1,+0.0,-0.0
# iter:  22 05:43:36   -12.276784c  -3.59  -4.11c  +1.1,+0.0,-0.0
# iter:  23 05:43:53   -12.276837c  -3.73  -4.29c  +1.1,+0.0,-0.0
# iter:  24 05:44:09   -12.276972c  -3.86  -4.30c  +1.1,+0.0,-0.0
# iter:  25 05:44:26   -12.277088c  -3.98  -4.31c  +1.1,+0.0,-0.0
# iter:  26 05:44:43   -12.277060c  -4.12  -4.30c  +1.1,+0.0,-0.0
# iter:  27 05:45:00   -12.277053c  -4.25  -4.36c  +1.1,+0.0,-0.0
# iter:  28 05:45:16   -12.277224c  -4.38  -4.23c  +1.1,+0.0,-0.0
# iter:  29 05:45:33   -12.277266c  -4.50  -4.88c  +1.1,+0.0,-0.0
# iter:  30 05:45:50   -12.277300c  -4.63  -4.91c  +1.1,+0.0,-0.0
# iter:  31 05:46:07   -12.277292c  -4.76  -5.08c  +1.1,+0.0,-0.0
# iter:  32 05:46:23   -12.277295c  -4.89  -5.32c  +1.1,+0.0,-0.0
# iter:  33 05:46:40   -12.277305c  -5.02  -5.41c  +1.1,+0.0,-0.0
# iter:  34 05:46:57   -12.277301c  -5.15  -5.61c  +1.1,+0.0,-0.0
# iter:  35 05:47:14   -12.277300c  -5.29  -5.75c  +1.1,+0.0,-0.0
# iter:  36 05:47:30   -12.277301c  -5.43  -5.82c  +1.1,+0.0,-0.0
# iter:  37 05:47:47   -12.277302c  -5.57  -5.85c  +1.1,+0.0,+0.0
# iter:  38 05:48:04   -12.277304c  -5.71  -5.90c  +1.1,+0.0,-0.0
# iter:  39 05:48:21   -12.277305c  -5.85  -5.91c  +1.1,+0.0,-0.0
# iter:  40 05:48:37   -12.277309c  -5.99  -5.93c  +1.1,+0.0,-0.0
# iter:  41 05:48:54   -12.277309c  -6.12  -6.13c  +1.1,+0.0,-0.0
# iter:  42 05:49:10   -12.277310c  -6.26  -6.34c  +1.1,+0.0,-0.0
# iter:  43 05:49:27   -12.277310c  -6.40  -6.35c  +1.1,+0.0,-0.0
# iter:  44 05:49:43   -12.277310c  -6.54  -6.33c  +1.1,+0.0,-0.0
# iter:  45 05:50:00   -12.277310c  -6.68  -6.34c  +1.1,+0.0,-0.0
# iter:  46 05:50:17   -12.277310c  -6.82  -6.28c  +1.1,+0.0,-0.0
# iter:  47 05:50:33   -12.277310c  -6.96  -6.31c  +1.1,+0.0,-0.0
# iter:  48 05:50:50   -12.277311c  -7.10  -6.30c  +1.1,+0.0,-0.0
# iter:  49 05:51:07   -12.277312c  -7.24  -6.32c  +1.1,+0.0,-0.0
# iter:  50 05:51:23   -12.277312c  -7.38  -6.39c  +1.1,+0.0,-0.0
# iter:  51 05:51:40   -12.277313c  -7.52c -6.42c  +1.1,+0.0,-0.0
scf_steps: 51
energies:  # eV
  coulomb:          -7.845020
  zero:              0.066535
  xc:              -14.892477
  external:          0.000000
  kinetic:          10.420115
  spinorbit:         0.000000
  entropy:          -0.052932
  total:           -12.303779
  extrapolated:    -12.277313

dipole moment: [-3.365612, -6.029284, -0.677425]  # |e|*Ang

total magnetic moment: [1.107799, 0.002245, -0.000000]

local magnetic moments: [
  [ 1.113271, -0.000752, -0.000000],  # Ni 0
  [-0.041618,  0.000029, -0.000000],  # I  1
  [ 0.035498, -0.021725, -0.000000]]  # I  2


Fermi level: -1.202 eV

kpt = [-0.455, -0.455, 0.000], weight = 0.008:
  Band      eig [eV]   occ [0-1]
     0       -64.949       1.000
   ...
    22        -3.016       1.000
    23        -2.864       1.000
    24        -2.751       1.000
    25        -2.328       1.000
    26        -2.148       1.000
    27        -2.100       1.000
    28        -1.867       0.999
    29        -1.699       0.993
    30        -0.998       0.115
    31        -0.826       0.023
    32         2.423       0.000
    33         2.573       0.000
    34         4.452       0.000
    35         4.737       0.000
    36         4.944       0.000
    37         5.123       0.000
   ...
    39         5.660       0.000

kpt = [-0.455, -0.364, 0.000], weight = 0.008:
  Band      eig [eV]   occ [0-1]
     0       -64.949       1.000
   ...
    22        -2.924       1.000
    23        -2.901       1.000
    24        -2.756       1.000
    25        -2.411       1.000
    26        -2.160       1.000
    27        -2.104       1.000
    28        -1.766       0.996
    29        -1.589       0.980
    30        -0.953       0.077
    31        -0.754       0.011
    32         2.120       0.000
    33         2.648       0.000
    34         4.167       0.000
    35         4.252       0.000
    36         4.604       0.000
    37         5.004       0.000
   ...
    39         5.681       0.000

kpt = [-0.455, -0.273, 0.000], weight = 0.008:
  Band      eig [eV]   occ [0-1]
     0       -64.949       1.000
   ...
    22        -2.976       1.000
    23        -2.843       1.000
    24        -2.698       1.000
    25        -2.437       1.000
    26        -2.160       1.000
    27        -2.066       1.000
    28        -1.739       0.995
    29        -1.449       0.922
    30        -0.996       0.114
    31        -0.650       0.004
    32         1.959       0.000
    33         2.716       0.000
    34         3.784       0.000
    35         4.087       0.000
    36         4.374       0.000
    37         4.859       0.000
   ...
    39         5.621       0.000
(only showing first 3 out of 121 k-points)

Gap: 0.294 eV
Transition (v -> c):
  (s=0, k=93, n=29, [0.27, 0.00, 0.00]) -> (s=0, k=55, n=30, [0.00, -0.45, 0.00])
# Writing to Band/gsq-47.gpw (mode='')

