#  __  _  _
# | _ |_)|_||  |
# |__||  | ||/\| - 24.1.0

User:   s194113@n-62-28-16
Date:   Thu Apr 25 21:39:54 2024
Arch:   x86_64
Pid:    5951
CWD:    /work3/s194113/10302/10302_NM/NiI2
Python: 3.8.5
gpaw:   /zhome/87/8/147075/venv-name/gpaw/gpaw (10808453a8)
_gpaw:  /zhome/87/8/147075/venv-name/gpaw/
        _gpaw.cpython-38-x86_64-linux-gnu.so (10808453a8)
ase:    /zhome/87/8/147075/venv-name/ase/ase (version 3.23.0b1-c36115a2db)
numpy:  /zhome/87/8/147075/venv-name/lib/python3.8/site-packages/numpy (version 1.24.4)
scipy:  /zhome/87/8/147075/venv-name/lib/python3.8/site-packages/scipy (version 1.10.1)
libxc:  4.3.4
units:  Angstrom and eV
cores: 12
OpenMP: False
OMP_NUM_THREADS: 1

---
input parameters:
  kpts: 
    density: 6.0
    gamma: True
  magmoms: [[1.28782608, 0, 0], [0.19870794, 0, 0], [0.19870794, 0, 0]]
  mixer: 
    backend: 'pulay'
    beta: 0.05
    method: 'sum'
    nmaxold: 5
    weight: 100
  mode: 
    name: 'pw'
    ecut: 600.0
    qspiral: array([0.13888889, 0.        , 0.        ])
  parallel: 
    kpt: None
    domain: 1
    band: 1
    order: 'kdb'
    stridebands: False
    augment_grids: False
    sl_auto: False
    sl_default: None
    sl_diagonalize: None
    sl_inverse_cholesky: None
    sl_lcao: None
    sl_lrtddft: None
    use_elpa: False
    elpasolver: '2stage'
    buffer_size: None
    gpu: False
  symmetry: 
    point_group: False
    time_reversal: False
  xc: 
    name: 'LDA'

#                        
#                        
#                        
#                        
#                        
#              I         
#                        
#        Ni              
#          I             
#                        
#                        
#                        
#                        
#                        

atoms: [  # symbols, positions [Ang] and initial magnetic moments
  [ Ni, [   0.000000,    0.000000,    7.513573], [ 1.288,  0.000,  0.000]], # 0
  [  I, [   1.984831,    1.145943,    9.027147], [ 0.199,  0.000,  0.000]], # 1
  [  I, [   0.000000,    2.291885,    6.000000], [ 0.199,  0.000,  0.000]]] # 2

cell: [  # Ang
#     x            y            z
  [   3.969662,    0.000000,    0.000000],
  [  -1.984831,    3.437828,    0.000000],
  [   0.000000,    0.000000,   15.027147]]

periodic: [True      , True      , False     ]
lengths:  [  3.969662,   3.969662,  15.027147]  # Ang
angles:   [ 90.000000,  90.000000, 120.000000]

symmetry:
  number of symmetries: 1
  rotations: [
    [[ 1,  0,  0], [ 0,  1,  0], [ 0,  0,  1]]]

bz sampling:
  number of bz points: 121
  number of ibz points: 121
  monkhorst-pack size: [11, 11, 1]
  monkhorst-pack shift: [0, 0, 0]
  points and weights: [
    [[ -0.45454545,  -0.45454545,   0.00000000], 0.00826446],  # 0
    [[ -0.45454545,  -0.36363636,   0.00000000], 0.00826446],  # 1
    [[ -0.45454545,  -0.27272727,   0.00000000], 0.00826446],  # 2
    [[ -0.45454545,  -0.18181818,   0.00000000], 0.00826446],  # 3
    [[ -0.45454545,  -0.09090909,   0.00000000], 0.00826446],  # 4
    [[ -0.45454545,   0.00000000,   0.00000000], 0.00826446],  # 5
    [[ -0.45454545,   0.09090909,   0.00000000], 0.00826446],  # 6
    [[ -0.45454545,   0.18181818,   0.00000000], 0.00826446],  # 7
    [[ -0.45454545,   0.27272727,   0.00000000], 0.00826446],  # 8
    [[ -0.45454545,   0.36363636,   0.00000000], 0.00826446],  # 9
    # ...
    [[  0.45454545,   0.45454545,   0.00000000], 0.00826446]]  # 120

plane wave coefficients: 6874
cutoff: 600.0 eV

spin-components: 4  # (non-collinear spins)
bands: 40
valence electrons: 30.0
spin-degeneracy: 1
dtype: complex128

memory:
    wave functions: 1_060_928_000  # bytes  (88_410_666 per core)

parallelization:
    kpt:    12
    domain: 1
    band:   1

density:
  components: 4
  grid points: [24 24 90]
  charge: 0.0  # |e|

potential:
  grid points: [24 24 90]

species:
  Ni:
    name: Nickel
    id: 1802175e8de9ea26d9f4394ec1a7d564
    Z: 28.0
    valence: 16
    core: 12
    charge: 0.0
    file: /zhome/86/d/1666/PAW/gpaw-setups-0.9.20000/Ni.LDA.gz
    compensation charges: {type: gauss,
                           rc: 0.36,
                           lmax: 2}
    cutoffs: {filter: 2.14,
              core: 1.98}
    valence states:
      #              energy  rcut
      - 4s(2.00)    -5.858   1.164
      - 3p(6.00)   -71.266   1.207
      - 4p(0.00)    -1.338   1.207
      - 3d(8.00)    -9.141   1.138
      -  s          21.353   1.164
      -  d          18.071   1.138
  
    # Using partial waves for Ni as LCAO basis

  I:
    name: Iodine
    id: b559721c0c096a7b4c8fc0e0f4de5cf4
    Z: 53.0
    valence: 7
    core: 46
    charge: 0.0
    file: /zhome/86/d/1666/PAW/gpaw-setups-0.9.20000/I.LDA.gz
    compensation charges: {type: gauss,
                           rc: 0.37,
                           lmax: 2}
    cutoffs: {filter: 2.06,
              core: 2.90}
    valence states:
      #              energy  rcut
      - 5s(2.00)   -17.626   1.164
      - 5p(5.00)    -7.241   1.164
      -  s           9.585   1.164
      -  p          19.970   1.164
      -  d           0.000   1.164
  
    # Using partial waves for I as LCAO basis

Reference energy: -428067.566327  # eV

eigensolver:
  name: 'Davidson'
  niter: 2
  converge_bands: 'occupied'
Density mixing:
  Method: sum
  Backend: pulay
  Linear mixing parameter: 0.05
  old densities: 5
  Damping of long wavelength oscillations: 100
occupation numbers:
  Fermi-Dirac:
    width: 0.1000  # eV
  

poisson solver:
  ecut: 4800.0  # eV

xc functional:
  name: None

convergence criteria:
- Maximum [total energy] change in last 3 cyles: 0.0005 eV / valence electron
- Maximum integral of absolute [dens]ity change: 0.0001 electrons / valence electron
- Maximum integral of absolute [eigenst]ate change: 4e-08 eV^2 / valence electron
maximum number of iterations: 333

#      iter     time        total  log10-change:
#                          energy   eigst   dens
# iter:   1 21:40:21   -13.812466                  +1.7,+0.0,+0.0
# iter:   2 21:40:37   -12.665633   -0.45  -1.32   +1.5,-0.0,+0.0
# iter:   3 21:40:54   -12.247964   -0.75  -1.46   +1.5,-0.0,+0.0
# iter:   4 21:41:11   -12.304478   -1.45  -1.68   +1.6,-0.0,+0.0
# iter:   5 21:41:28   -12.500082   -1.58  -1.67   +1.6,+0.0,+0.0
# iter:   6 21:41:44   -12.329626   -1.84  -1.80   +1.7,+0.0,+0.0
# iter:   7 21:42:01   -12.313639   -2.18  -2.16   +1.7,+0.0,-0.0
# iter:   8 21:42:18   -12.307067   -2.44  -2.33   +1.7,+0.0,-0.0
# iter:   9 21:42:34   -12.307545c  -2.59  -2.62   +1.7,+0.0,+0.0
# iter:  10 21:42:51   -12.309247c  -2.91  -3.01   +1.7,+0.0,-0.0
# iter:  11 21:43:08   -12.309886c  -3.12  -2.92   +1.7,+0.0,-0.0
# iter:  12 21:43:24   -12.308186c  -3.26  -2.94   +1.7,+0.0,-0.0
# iter:  13 21:43:41   -12.308176c  -3.49  -3.53   +1.7,+0.0,-0.0
# iter:  14 21:43:58   -12.308069c  -3.66  -3.68   +1.7,+0.0,+0.0
# iter:  15 21:44:14   -12.308071c  -3.83  -3.85   +1.7,+0.0,+0.0
# iter:  16 21:44:31   -12.308278c  -4.00  -3.91   +1.7,+0.0,+0.0
# iter:  17 21:44:48   -12.308554c  -4.17  -3.96   +1.7,+0.0,+0.0
# iter:  18 21:45:04   -12.308591c  -4.33  -3.90   +1.7,+0.0,+0.0
# iter:  19 21:45:21   -12.308625c  -4.49  -4.06c  +1.7,+0.0,+0.0
# iter:  20 21:45:37   -12.308717c  -4.65  -4.07c  +1.7,+0.0,+0.0
# iter:  21 21:45:54   -12.308682c  -4.78  -4.08c  +1.7,+0.0,+0.0
# iter:  22 21:46:10   -12.308751c  -4.97  -4.01c  +1.7,+0.0,+0.0
# iter:  23 21:46:27   -12.309099c  -5.04  -4.15c  +1.7,+0.0,+0.0
# iter:  24 21:46:43   -12.308987c  -5.20  -3.94   +1.7,+0.0,+0.0
# iter:  25 21:47:00   -12.308976c  -5.46  -4.61c  +1.7,+0.0,+0.0
# iter:  26 21:47:16   -12.308974c  -5.62  -4.76c  +1.7,+0.0,+0.0
# iter:  27 21:47:33   -12.308984c  -5.78  -4.81c  +1.7,+0.0,+0.0
# iter:  28 21:47:49   -12.308993c  -5.94  -4.91c  +1.7,+0.0,+0.0
# iter:  29 21:48:06   -12.308992c  -6.09  -5.07c  +1.7,+0.0,+0.0
# iter:  30 21:48:22   -12.308985c  -6.25  -5.05c  +1.7,+0.0,+0.0
# iter:  31 21:48:39   -12.308987c  -6.39  -5.24c  +1.7,+0.0,+0.0
# iter:  32 21:48:56   -12.308990c  -6.54  -5.28c  +1.7,+0.0,+0.0
# iter:  33 21:49:12   -12.308987c  -6.69  -5.33c  +1.7,+0.0,+0.0
# iter:  34 21:49:29   -12.308995c  -6.83  -5.34c  +1.7,+0.0,+0.0
# iter:  35 21:49:45   -12.308993c  -6.99  -5.41c  +1.7,+0.0,+0.0
# iter:  36 21:50:02   -12.308991c  -7.14  -5.57c  +1.7,+0.0,+0.0
# iter:  37 21:50:18   -12.308991c  -7.29  -5.75c  +1.7,+0.0,+0.0
# iter:  38 21:50:35   -12.308990c  -7.44c -5.91c  +1.7,+0.0,+0.0
scf_steps: 38
energies:  # eV
  coulomb:          -7.864072
  zero:              0.066399
  xc:              -14.934308
  external:          0.000000
  kinetic:          10.444256
  spinorbit:         0.000000
  entropy:          -0.042529
  total:           -12.330254
  extrapolated:    -12.308990

dipole moment: [-4.086527, -7.062493, -5.691530]  # |e|*Ang

total magnetic moment: [1.730617, 0.011697, 0.000000]

local magnetic moments: [
  [ 1.142721, -0.004938,  0.000000],  # Ni 0
  [ 0.138863, -0.093215, -0.000000],  # I  1
  [ 0.160258, -0.047844,  0.000000]]  # I  2


Fermi level: -1.183 eV

kpt = [-0.455, -0.455, 0.000], weight = 0.008:
  Band      eig [eV]   occ [0-1]
     0       -64.969       1.000
   ...
    22        -3.122       1.000
    23        -2.985       1.000
    24        -2.897       1.000
    25        -2.291       1.000
    26        -2.158       1.000
    27        -2.119       1.000
    28        -1.661       0.992
    29        -1.600       0.985
    30        -0.699       0.008
    31        -0.663       0.005
    32         1.594       0.000
    33         2.252       0.000
    34         3.654       0.000
    35         4.475       0.000
    36         4.534       0.000
    37         4.774       0.000
   ...
    39         5.090       0.000

kpt = [-0.455, -0.364, 0.000], weight = 0.008:
  Band      eig [eV]   occ [0-1]
     0       -64.969       1.000
   ...
    22        -3.047       1.000
    23        -2.934       1.000
    24        -2.802       1.000
    25        -2.259       1.000
    26        -2.135       1.000
    27        -2.061       1.000
    28        -1.831       0.998
    29        -1.685       0.993
    30        -0.882       0.047
    31        -0.734       0.011
    32         2.040       0.000
    33         2.567       0.000
    34         4.197       0.000
    35         4.624       0.000
    36         4.739       0.000
    37         4.957       0.000
   ...
    39         5.657       0.000

kpt = [-0.455, -0.273, 0.000], weight = 0.008:
  Band      eig [eV]   occ [0-1]
     0       -64.969       1.000
   ...
    22        -3.015       1.000
    23        -2.917       1.000
    24        -2.727       1.000
    25        -2.254       1.000
    26        -2.136       1.000
    27        -2.042       1.000
    28        -1.941       0.999
    29        -1.701       0.994
    30        -1.021       0.165
    31        -0.753       0.013
    32         2.511       0.000
    33         2.721       0.000
    34         4.155       0.000
    35         4.702       0.000
    36         5.042       0.000
    37         5.131       0.000
   ...
    39         5.815       0.000
(only showing first 3 out of 121 k-points)

No gap
# Writing to Band/gsq-10.gpw (mode='')

---

timing:  # [seconds]
  Total: 641.119  # ━━━━━━━━━━━━━━━━━━━━━━━━━━━━━━━━━━━━━━━━━━━━━━━━━━━━━━━━━
  Init:   10.751  # ━
  SCF:   629.969  # ━━━━━━━━━━━━━━━━━━━━━━━━━━━━━━━━━━━━━━━━━━━━━━━━━━━━━━━━

Max RSS: 708.191  # MiB
