#  __  _  _
# | _ |_)|_||  |
# |__||  | ||/\| - 24.1.0

User:   s194113@n-62-28-16
Date:   Thu Apr 25 21:18:47 2024
Arch:   x86_64
Pid:    5951
CWD:    /work3/s194113/10302/10302_NM/NiI2
Python: 3.8.5
gpaw:   /zhome/87/8/147075/venv-name/gpaw/gpaw (10808453a8)
_gpaw:  /zhome/87/8/147075/venv-name/gpaw/
        _gpaw.cpython-38-x86_64-linux-gnu.so (10808453a8)
ase:    /zhome/87/8/147075/venv-name/ase/ase (version 3.23.0b1-c36115a2db)
numpy:  /zhome/87/8/147075/venv-name/lib/python3.8/site-packages/numpy (version 1.24.4)
scipy:  /zhome/87/8/147075/venv-name/lib/python3.8/site-packages/scipy (version 1.10.1)
libxc:  4.3.4
units:  Angstrom and eV
cores: 12
OpenMP: False
OMP_NUM_THREADS: 1

---
input parameters:
  kpts: 
    density: 6.0
    gamma: True
  magmoms: [[1.28782608, 0, 0], [0.19870794, 0, 0], [0.19870794, 0, 0]]
  mixer: 
    backend: 'pulay'
    beta: 0.05
    method: 'sum'
    nmaxold: 5
    weight: 100
  mode: 
    name: 'pw'
    ecut: 600.0
    qspiral: array([0.11111111, 0.        , 0.        ])
  parallel: 
    kpt: None
    domain: 1
    band: 1
    order: 'kdb'
    stridebands: False
    augment_grids: False
    sl_auto: False
    sl_default: None
    sl_diagonalize: None
    sl_inverse_cholesky: None
    sl_lcao: None
    sl_lrtddft: None
    use_elpa: False
    elpasolver: '2stage'
    buffer_size: None
    gpu: False
  symmetry: 
    point_group: False
    time_reversal: False
  xc: 
    name: 'LDA'

#                        
#                        
#                        
#                        
#                        
#              I         
#                        
#        Ni              
#          I             
#                        
#                        
#                        
#                        
#                        

atoms: [  # symbols, positions [Ang] and initial magnetic moments
  [ Ni, [   0.000000,    0.000000,    7.513573], [ 1.288,  0.000,  0.000]], # 0
  [  I, [   1.984831,    1.145943,    9.027147], [ 0.199,  0.000,  0.000]], # 1
  [  I, [   0.000000,    2.291885,    6.000000], [ 0.199,  0.000,  0.000]]] # 2

cell: [  # Ang
#     x            y            z
  [   3.969662,    0.000000,    0.000000],
  [  -1.984831,    3.437828,    0.000000],
  [   0.000000,    0.000000,   15.027147]]

periodic: [True      , True      , False     ]
lengths:  [  3.969662,   3.969662,  15.027147]  # Ang
angles:   [ 90.000000,  90.000000, 120.000000]

symmetry:
  number of symmetries: 1
  rotations: [
    [[ 1,  0,  0], [ 0,  1,  0], [ 0,  0,  1]]]

bz sampling:
  number of bz points: 121
  number of ibz points: 121
  monkhorst-pack size: [11, 11, 1]
  monkhorst-pack shift: [0, 0, 0]
  points and weights: [
    [[ -0.45454545,  -0.45454545,   0.00000000], 0.00826446],  # 0
    [[ -0.45454545,  -0.36363636,   0.00000000], 0.00826446],  # 1
    [[ -0.45454545,  -0.27272727,   0.00000000], 0.00826446],  # 2
    [[ -0.45454545,  -0.18181818,   0.00000000], 0.00826446],  # 3
    [[ -0.45454545,  -0.09090909,   0.00000000], 0.00826446],  # 4
    [[ -0.45454545,   0.00000000,   0.00000000], 0.00826446],  # 5
    [[ -0.45454545,   0.09090909,   0.00000000], 0.00826446],  # 6
    [[ -0.45454545,   0.18181818,   0.00000000], 0.00826446],  # 7
    [[ -0.45454545,   0.27272727,   0.00000000], 0.00826446],  # 8
    [[ -0.45454545,   0.36363636,   0.00000000], 0.00826446],  # 9
    # ...
    [[  0.45454545,   0.45454545,   0.00000000], 0.00826446]]  # 120

plane wave coefficients: 6874
cutoff: 600.0 eV

spin-components: 4  # (non-collinear spins)
bands: 40
valence electrons: 30.0
spin-degeneracy: 1
dtype: complex128

memory:
    wave functions: 1_060_928_000  # bytes  (88_410_666 per core)

parallelization:
    kpt:    12
    domain: 1
    band:   1

density:
  components: 4
  grid points: [24 24 90]
  charge: 0.0  # |e|

potential:
  grid points: [24 24 90]

species:
  Ni:
    name: Nickel
    id: 1802175e8de9ea26d9f4394ec1a7d564
    Z: 28.0
    valence: 16
    core: 12
    charge: 0.0
    file: /zhome/86/d/1666/PAW/gpaw-setups-0.9.20000/Ni.LDA.gz
    compensation charges: {type: gauss,
                           rc: 0.36,
                           lmax: 2}
    cutoffs: {filter: 2.14,
              core: 1.98}
    valence states:
      #              energy  rcut
      - 4s(2.00)    -5.858   1.164
      - 3p(6.00)   -71.266   1.207
      - 4p(0.00)    -1.338   1.207
      - 3d(8.00)    -9.141   1.138
      -  s          21.353   1.164
      -  d          18.071   1.138
  
    # Using partial waves for Ni as LCAO basis

  I:
    name: Iodine
    id: b559721c0c096a7b4c8fc0e0f4de5cf4
    Z: 53.0
    valence: 7
    core: 46
    charge: 0.0
    file: /zhome/86/d/1666/PAW/gpaw-setups-0.9.20000/I.LDA.gz
    compensation charges: {type: gauss,
                           rc: 0.37,
                           lmax: 2}
    cutoffs: {filter: 2.06,
              core: 2.90}
    valence states:
      #              energy  rcut
      - 5s(2.00)   -17.626   1.164
      - 5p(5.00)    -7.241   1.164
      -  s           9.585   1.164
      -  p          19.970   1.164
      -  d           0.000   1.164
  
    # Using partial waves for I as LCAO basis

Reference energy: -428067.566327  # eV

eigensolver:
  name: 'Davidson'
  niter: 2
  converge_bands: 'occupied'
Density mixing:
  Method: sum
  Backend: pulay
  Linear mixing parameter: 0.05
  old densities: 5
  Damping of long wavelength oscillations: 100
occupation numbers:
  Fermi-Dirac:
    width: 0.1000  # eV
  

poisson solver:
  ecut: 4800.0  # eV

xc functional:
  name: None

convergence criteria:
- Maximum [total energy] change in last 3 cyles: 0.0005 eV / valence electron
- Maximum integral of absolute [dens]ity change: 0.0001 electrons / valence electron
- Maximum integral of absolute [eigenst]ate change: 4e-08 eV^2 / valence electron
maximum number of iterations: 333

#      iter     time        total  log10-change:
#                          energy   eigst   dens
# iter:   1 21:19:13   -13.835466                  +1.7,+0.0,+0.0
# iter:   2 21:19:30   -12.664236   -0.50  -1.32   +1.5,-0.0,-0.0
# iter:   3 21:19:47   -12.244478   -0.76  -1.46   +1.5,-0.0,+0.0
# iter:   4 21:20:03   -12.301567   -1.44  -1.68   +1.6,-0.0,+0.0
# iter:   5 21:20:20   -12.500329   -1.58  -1.66   +1.6,+0.0,+0.0
# iter:   6 21:20:36   -12.315935   -1.80  -1.80   +1.7,+0.0,+0.0
# iter:   7 21:20:53   -12.305884   -2.19  -2.20   +1.7,+0.0,-0.0
# iter:   8 21:21:09   -12.302592c  -2.46  -2.34   +1.7,+0.0,-0.0
# iter:   9 21:21:26   -12.301526c  -2.58  -2.56   +1.7,+0.0,-0.0
# iter:  10 21:21:42   -12.302647c  -2.91  -3.03   +1.7,+0.0,+0.0
# iter:  11 21:21:59   -12.305103c  -3.11  -3.00   +1.7,+0.0,+0.0
# iter:  12 21:22:15   -12.303245c  -3.28  -2.84   +1.7,+0.0,-0.0
# iter:  13 21:22:31   -12.303076c  -3.50  -3.20   +1.7,+0.0,-0.0
# iter:  14 21:22:48   -12.303040c  -3.69  -3.34   +1.7,+0.0,+0.0
# iter:  15 21:23:04   -12.302710c  -3.82  -3.37   +1.7,+0.0,-0.0
# iter:  16 21:23:21   -12.302705c  -3.97  -3.69   +1.7,+0.0,-0.0
# iter:  17 21:23:37   -12.302808c  -4.19  -3.76   +1.7,+0.0,+0.0
# iter:  18 21:23:54   -12.303180c  -4.36  -3.80   +1.8,+0.0,+0.0
# iter:  19 21:24:10   -12.303277c  -4.53  -4.02c  +1.8,+0.0,+0.0
# iter:  20 21:24:26   -12.303360c  -4.68  -4.06c  +1.8,+0.0,+0.0
# iter:  21 21:24:43   -12.303330c  -4.82  -4.09c  +1.8,+0.0,+0.0
# iter:  22 21:24:59   -12.303389c  -4.97  -3.91   +1.8,+0.0,+0.0
# iter:  23 21:25:16   -12.303437c  -5.17  -4.21c  +1.8,+0.0,+0.0
# iter:  24 21:25:32   -12.303399c  -5.35  -4.21c  +1.8,+0.0,+0.0
# iter:  25 21:25:48   -12.303404c  -5.50  -4.21c  +1.8,+0.0,+0.0
# iter:  26 21:26:05   -12.303385c  -5.65  -4.22c  +1.8,+0.0,+0.0
# iter:  27 21:26:21   -12.303385c  -5.81  -4.21c  +1.8,+0.0,+0.0
# iter:  28 21:26:38   -12.303387c  -5.96  -4.22c  +1.8,+0.0,+0.0
# iter:  29 21:26:54   -12.303407c  -6.09  -4.22c  +1.8,+0.0,+0.0
# iter:  30 21:27:10   -12.303427c  -6.25  -4.34c  +1.8,+0.0,+0.0
# iter:  31 21:27:27   -12.303500c  -6.36  -4.38c  +1.8,+0.0,+0.0
# iter:  32 21:27:43   -12.303532c  -6.55  -4.46c  +1.8,+0.0,+0.0
# iter:  33 21:27:59   -12.303664c  -6.43  -4.48c  +1.8,+0.0,+0.0
# iter:  34 21:28:16   -12.303678c  -6.75  -4.81c  +1.8,+0.0,+0.0
# iter:  35 21:28:32   -12.303673c  -7.02  -4.91c  +1.8,+0.0,+0.0
# iter:  36 21:28:48   -12.303667c  -7.19  -4.99c  +1.8,+0.0,+0.0
# iter:  37 21:29:05   -12.303683c  -7.30  -5.11c  +1.8,+0.0,+0.0
# iter:  38 21:29:21   -12.303676c  -7.49c -5.22c  +1.8,+0.0,+0.0
scf_steps: 38
energies:  # eV
  coulomb:          -7.918719
  zero:              0.065581
  xc:              -14.943214
  external:          0.000000
  kinetic:          10.515537
  spinorbit:         0.000000
  entropy:          -0.045722
  total:           -12.326537
  extrapolated:    -12.303676

dipole moment: [-4.117842, -7.118986, -5.954596]  # |e|*Ang

total magnetic moment: [1.762149, 0.009774, 0.000000]

local magnetic moments: [
  [ 1.144119, -0.004137,  0.000000],  # Ni 0
  [ 0.154278, -0.078545,  0.000000],  # I  1
  [ 0.168383, -0.040230, -0.000000]]  # I  2


Fermi level: -1.183 eV

kpt = [-0.455, -0.455, 0.000], weight = 0.008:
  Band      eig [eV]   occ [0-1]
     0       -64.972       1.000
   ...
    22        -3.128       1.000
    23        -2.992       1.000
    24        -2.901       1.000
    25        -2.292       1.000
    26        -2.158       1.000
    27        -2.123       1.000
    28        -1.639       0.990
    29        -1.597       0.984
    30        -0.688       0.007
    31        -0.665       0.006
    32         1.610       0.000
    33         2.174       0.000
    34         3.692       0.000
    35         4.478       0.000
    36         4.507       0.000
    37         4.741       0.000
   ...
    39         5.002       0.000

kpt = [-0.455, -0.364, 0.000], weight = 0.008:
  Band      eig [eV]   occ [0-1]
     0       -64.972       1.000
   ...
    22        -3.054       1.000
    23        -2.940       1.000
    24        -2.798       1.000
    25        -2.253       1.000
    26        -2.136       1.000
    27        -2.055       1.000
    28        -1.857       0.999
    29        -1.675       0.993
    30        -0.901       0.056
    31        -0.725       0.010
    32         2.096       0.000
    33         2.550       0.000
    34         4.287       0.000
    35         4.674       0.000
    36         4.739       0.000
    37         4.974       0.000
   ...
    39         5.584       0.000

kpt = [-0.455, -0.273, 0.000], weight = 0.008:
  Band      eig [eV]   occ [0-1]
     0       -64.972       1.000
   ...
    22        -3.030       1.000
    23        -2.917       1.000
    24        -2.729       1.000
    25        -2.247       1.000
    26        -2.135       1.000
    27        -2.044       1.000
    28        -1.961       1.000
    29        -1.697       0.994
    30        -1.031       0.180
    31        -0.745       0.012
    32         2.516       0.000
    33         2.735       0.000
    34         4.166       0.000
    35         4.628       0.000
    36         5.122       0.000
    37         5.245       0.000
   ...
    39         5.975       0.000
(only showing first 3 out of 121 k-points)

No gap
# Writing to Band/gsq-08.gpw (mode='')

---

timing:  # [seconds]
  Total: 634.527  # ━━━━━━━━━━━━━━━━━━━━━━━━━━━━━━━━━━━━━━━━━━━━━━━━━━━━━━━━━
  Init:   10.747  # ━
  SCF:   623.410  # ━━━━━━━━━━━━━━━━━━━━━━━━━━━━━━━━━━━━━━━━━━━━━━━━━━━━━━━━

Max RSS: 708.191  # MiB
