#  __  _  _
# | _ |_)|_||  |
# |__||  | ||/\| - 24.1.0

User:   s194113@n-62-28-16
Date:   Fri Apr 26 14:31:16 2024
Arch:   x86_64
Pid:    5951
CWD:    /work3/s194113/10302/10302_NM/NiI2
Python: 3.8.5
gpaw:   /zhome/87/8/147075/venv-name/gpaw/gpaw (10808453a8)
_gpaw:  /zhome/87/8/147075/venv-name/gpaw/
        _gpaw.cpython-38-x86_64-linux-gnu.so (10808453a8)
ase:    /zhome/87/8/147075/venv-name/ase/ase (version 3.23.0b1-c36115a2db)
numpy:  /zhome/87/8/147075/venv-name/lib/python3.8/site-packages/numpy (version 1.24.4)
scipy:  /zhome/87/8/147075/venv-name/lib/python3.8/site-packages/scipy (version 1.10.1)
libxc:  4.3.4
units:  Angstrom and eV
cores: 12
OpenMP: False
OMP_NUM_THREADS: 1

---
input parameters:
  kpts: 
    density: 6.0
    gamma: True
  magmoms: [[1.28782608, 0, 0], [0.19870794, 0, 0], [0.19870794, 0, 0]]
  mixer: 
    backend: 'pulay'
    beta: 0.05
    method: 'sum'
    nmaxold: 5
    weight: 100
  mode: 
    name: 'pw'
    ecut: 600.0
    qspiral: array([0.10852713, 0.10852713, 0.        ])
  parallel: 
    kpt: None
    domain: 1
    band: 1
    order: 'kdb'
    stridebands: False
    augment_grids: False
    sl_auto: False
    sl_default: None
    sl_diagonalize: None
    sl_inverse_cholesky: None
    sl_lcao: None
    sl_lrtddft: None
    use_elpa: False
    elpasolver: '2stage'
    buffer_size: None
    gpu: False
  symmetry: 
    point_group: False
    time_reversal: False
  xc: 
    name: 'LDA'

#                        
#                        
#                        
#                        
#                        
#              I         
#                        
#        Ni              
#          I             
#                        
#                        
#                        
#                        
#                        

atoms: [  # symbols, positions [Ang] and initial magnetic moments
  [ Ni, [   0.000000,    0.000000,    7.513573], [ 1.288,  0.000,  0.000]], # 0
  [  I, [   1.984831,    1.145943,    9.027147], [ 0.199,  0.000,  0.000]], # 1
  [  I, [   0.000000,    2.291885,    6.000000], [ 0.199,  0.000,  0.000]]] # 2

cell: [  # Ang
#     x            y            z
  [   3.969662,    0.000000,    0.000000],
  [  -1.984831,    3.437828,    0.000000],
  [   0.000000,    0.000000,   15.027147]]

periodic: [True      , True      , False     ]
lengths:  [  3.969662,   3.969662,  15.027147]  # Ang
angles:   [ 90.000000,  90.000000, 120.000000]

symmetry:
  number of symmetries: 1
  rotations: [
    [[ 1,  0,  0], [ 0,  1,  0], [ 0,  0,  1]]]

bz sampling:
  number of bz points: 121
  number of ibz points: 121
  monkhorst-pack size: [11, 11, 1]
  monkhorst-pack shift: [0, 0, 0]
  points and weights: [
    [[ -0.45454545,  -0.45454545,   0.00000000], 0.00826446],  # 0
    [[ -0.45454545,  -0.36363636,   0.00000000], 0.00826446],  # 1
    [[ -0.45454545,  -0.27272727,   0.00000000], 0.00826446],  # 2
    [[ -0.45454545,  -0.18181818,   0.00000000], 0.00826446],  # 3
    [[ -0.45454545,  -0.09090909,   0.00000000], 0.00826446],  # 4
    [[ -0.45454545,   0.00000000,   0.00000000], 0.00826446],  # 5
    [[ -0.45454545,   0.09090909,   0.00000000], 0.00826446],  # 6
    [[ -0.45454545,   0.18181818,   0.00000000], 0.00826446],  # 7
    [[ -0.45454545,   0.27272727,   0.00000000], 0.00826446],  # 8
    [[ -0.45454545,   0.36363636,   0.00000000], 0.00826446],  # 9
    # ...
    [[  0.45454545,   0.45454545,   0.00000000], 0.00826446]]  # 120

plane wave coefficients: 6874
cutoff: 600.0 eV

spin-components: 4  # (non-collinear spins)
bands: 40
valence electrons: 30.0
spin-degeneracy: 1
dtype: complex128

memory:
    wave functions: 1_060_928_000  # bytes  (88_410_666 per core)

parallelization:
    kpt:    12
    domain: 1
    band:   1

density:
  components: 4
  grid points: [24 24 90]
  charge: 0.0  # |e|

potential:
  grid points: [24 24 90]

species:
  Ni:
    name: Nickel
    id: 1802175e8de9ea26d9f4394ec1a7d564
    Z: 28.0
    valence: 16
    core: 12
    charge: 0.0
    file: /zhome/86/d/1666/PAW/gpaw-setups-0.9.20000/Ni.LDA.gz
    compensation charges: {type: gauss,
                           rc: 0.36,
                           lmax: 2}
    cutoffs: {filter: 2.14,
              core: 1.98}
    valence states:
      #              energy  rcut
      - 4s(2.00)    -5.858   1.164
      - 3p(6.00)   -71.266   1.207
      - 4p(0.00)    -1.338   1.207
      - 3d(8.00)    -9.141   1.138
      -  s          21.353   1.164
      -  d          18.071   1.138
  
    # Using partial waves for Ni as LCAO basis

  I:
    name: Iodine
    id: b559721c0c096a7b4c8fc0e0f4de5cf4
    Z: 53.0
    valence: 7
    core: 46
    charge: 0.0
    file: /zhome/86/d/1666/PAW/gpaw-setups-0.9.20000/I.LDA.gz
    compensation charges: {type: gauss,
                           rc: 0.37,
                           lmax: 2}
    cutoffs: {filter: 2.06,
              core: 2.90}
    valence states:
      #              energy  rcut
      - 5s(2.00)   -17.626   1.164
      - 5p(5.00)    -7.241   1.164
      -  s           9.585   1.164
      -  p          19.970   1.164
      -  d           0.000   1.164
  
    # Using partial waves for I as LCAO basis

Reference energy: -428067.566327  # eV

eigensolver:
  name: 'Davidson'
  niter: 2
  converge_bands: 'occupied'
Density mixing:
  Method: sum
  Backend: pulay
  Linear mixing parameter: 0.05
  old densities: 5
  Damping of long wavelength oscillations: 100
occupation numbers:
  Fermi-Dirac:
    width: 0.1000  # eV
  

poisson solver:
  ecut: 4800.0  # eV

xc functional:
  name: None

convergence criteria:
- Maximum [total energy] change in last 3 cyles: 0.0005 eV / valence electron
- Maximum integral of absolute [dens]ity change: 0.0001 electrons / valence electron
- Maximum integral of absolute [eigenst]ate change: 4e-08 eV^2 / valence electron
maximum number of iterations: 333

#      iter     time        total  log10-change:
#                          energy   eigst   dens
# iter:   1 14:31:42   -13.757432                  +1.7,+0.0,+0.0
# iter:   2 14:31:58   -12.664972   -0.32  -1.32   +1.5,-0.0,+0.0
# iter:   3 14:32:15   -12.253780   -0.69  -1.46   +1.5,-0.0,-0.0
# iter:   4 14:32:31   -12.322577   -1.39  -1.68   +1.5,-0.0,-0.0
# iter:   5 14:32:47   -12.500180   -1.56  -1.66   +1.6,+0.0,-0.0
# iter:   6 14:33:03   -12.337906   -1.79  -1.81   +1.6,+0.0,+0.0
# iter:   7 14:33:20   -12.321382   -2.12  -2.17   +1.6,+0.0,+0.0
# iter:   8 14:33:36   -12.314716   -2.36  -2.34   +1.6,+0.0,+0.0
# iter:   9 14:33:52   -12.314738c  -2.52  -2.64   +1.6,+0.0,-0.0
# iter:  10 14:34:09   -12.316218c  -2.81  -3.02   +1.6,+0.0,-0.0
# iter:  11 14:34:25   -12.316928c  -3.00  -2.94   +1.6,+0.0,+0.0
# iter:  12 14:34:41   -12.315403c  -3.14  -2.95   +1.6,+0.0,-0.0
# iter:  13 14:34:57   -12.315484c  -3.34  -3.52   +1.6,+0.0,-0.0
# iter:  14 14:35:14   -12.315285c  -3.49  -3.52   +1.6,+0.0,+0.0
# iter:  15 14:35:30   -12.315301c  -3.65  -3.86   +1.6,+0.0,-0.0
# iter:  16 14:35:46   -12.315536c  -3.81  -3.90   +1.6,+0.0,-0.0
# iter:  17 14:36:03   -12.315814c  -3.95  -3.96   +1.7,+0.0,-0.0
# iter:  18 14:36:19   -12.315794c  -4.11  -4.14c  +1.7,+0.0,-0.0
# iter:  19 14:36:35   -12.315813c  -4.26  -4.02c  +1.7,+0.0,-0.0
# iter:  20 14:36:52   -12.315819c  -4.41  -4.21c  +1.7,+0.0,+0.0
# iter:  21 14:37:08   -12.315846c  -4.55  -4.22c  +1.7,+0.0,+0.0
# iter:  22 14:37:25   -12.315804c  -4.70  -4.23c  +1.7,+0.0,-0.0
# iter:  23 14:37:41   -12.315813c  -4.84  -4.16c  +1.7,+0.0,+0.0
# iter:  24 14:37:57   -12.315896c  -4.98  -4.12c  +1.7,+0.0,+0.0
# iter:  25 14:38:14   -12.315884c  -5.15  -4.46c  +1.7,+0.0,+0.0
# iter:  26 14:38:30   -12.316063c  -5.26  -4.45c  +1.7,+0.0,+0.0
# iter:  27 14:38:46   -12.316000c  -5.34  -4.24c  +1.7,+0.0,+0.0
# iter:  28 14:39:03   -12.316020c  -5.58  -4.46c  +1.7,+0.0,+0.0
# iter:  29 14:39:19   -12.316038c  -5.71  -4.60c  +1.7,+0.0,+0.0
# iter:  30 14:39:36   -12.316052c  -5.85  -4.80c  +1.7,+0.0,+0.0
# iter:  31 14:39:52   -12.316075c  -5.98  -5.13c  +1.7,+0.0,+0.0
# iter:  32 14:40:08   -12.316071c  -6.12  -5.27c  +1.7,+0.0,+0.0
# iter:  33 14:40:24   -12.316072c  -6.26  -5.33c  +1.7,+0.0,+0.0
# iter:  34 14:40:41   -12.316076c  -6.39  -5.36c  +1.7,+0.0,+0.0
# iter:  35 14:40:57   -12.316065c  -6.52  -5.21c  +1.7,+0.0,+0.0
# iter:  36 14:41:13   -12.316065c  -6.66  -5.75c  +1.7,+0.0,+0.0
# iter:  37 14:41:29   -12.316063c  -6.80  -5.81c  +1.7,+0.0,+0.0
# iter:  38 14:41:46   -12.316060c  -6.94  -5.91c  +1.7,+0.0,+0.0
# iter:  39 14:42:02   -12.316063c  -7.08  -5.87c  +1.7,+0.0,+0.0
# iter:  40 14:42:18   -12.316063c  -7.23  -5.92c  +1.7,+0.0,+0.0
# iter:  41 14:42:35   -12.316062c  -7.37  -5.98c  +1.7,+0.0,+0.0
# iter:  42 14:42:51   -12.316064c  -7.51c -6.29c  +1.7,+0.0,+0.0
scf_steps: 42
energies:  # eV
  coulomb:          -7.740773
  zero:              0.066493
  xc:              -14.916256
  external:          0.000000
  kinetic:          10.293584
  spinorbit:         0.000000
  entropy:          -0.038223
  total:           -12.335176
  extrapolated:    -12.316064

dipole moment: [-4.010915, -6.946535, -5.153470]  # |e|*Ang

total magnetic moment: [1.661582, 0.016415, 0.000000]

local magnetic moments: [
  [ 1.137545, -0.006906,  0.000000],  # Ni 0
  [ 0.118729, -0.097573,  0.000000],  # I  1
  [ 0.118716, -0.097589,  0.000000]]  # I  2


Fermi level: -1.182 eV

kpt = [-0.455, -0.455, 0.000], weight = 0.008:
  Band      eig [eV]   occ [0-1]
     0       -64.962       1.000
   ...
    22        -3.108       1.000
    23        -2.962       1.000
    24        -2.902       1.000
    25        -2.293       1.000
    26        -2.149       1.000
    27        -2.126       1.000
    28        -1.689       0.994
    29        -1.634       0.989
    30        -0.709       0.009
    31        -0.695       0.008
    32         1.572       0.000
    33         2.409       0.000
    34         3.632       0.000
    35         4.563       0.000
    36         4.638       0.000
    37         4.791       0.000
   ...
    39         5.375       0.000

kpt = [-0.455, -0.364, 0.000], weight = 0.008:
  Band      eig [eV]   occ [0-1]
     0       -64.962       1.000
   ...
    22        -3.050       1.000
    23        -2.934       1.000
    24        -2.836       1.000
    25        -2.304       1.000
    26        -2.144       1.000
    27        -2.098       1.000
    28        -1.783       0.998
    29        -1.642       0.990
    30        -0.824       0.027
    31        -0.725       0.010
    32         1.771       0.000
    33         2.608       0.000
    34         3.908       0.000
    35         4.526       0.000
    36         4.609       0.000
    37         4.860       0.000
   ...
    39         5.685       0.000

kpt = [-0.455, -0.273, 0.000], weight = 0.008:
  Band      eig [eV]   occ [0-1]
     0       -64.962       1.000
   ...
    22        -3.009       1.000
    23        -2.914       1.000
    24        -2.754       1.000
    25        -2.305       1.000
    26        -2.144       1.000
    27        -2.096       1.000
    28        -1.845       0.999
    29        -1.634       0.989
    30        -0.964       0.101
    31        -0.742       0.012
    32         2.324       0.000
    33         2.520       0.000
    34         4.333       0.000
    35         4.756       0.000
    36         4.881       0.000
    37         4.928       0.000
   ...
    39         5.713       0.000
(only showing first 3 out of 121 k-points)

Gap: 0.204 eV
Transition (v -> c):
  (s=0, k=60, n=29, [0.00, 0.00, 0.00]) -> (s=0, k=96, n=30, [0.27, 0.27, 0.00])
# Writing to Band/gsq-86.gpw (mode='')

