#  __  _  _
# | _ |_)|_||  |
# |__||  | ||/\| - 24.1.0

User:   s194113@n-62-28-16
Date:   Fri Apr 26 15:16:31 2024
Arch:   x86_64
Pid:    5951
CWD:    /work3/s194113/10302/10302_NM/NiI2
Python: 3.8.5
gpaw:   /zhome/87/8/147075/venv-name/gpaw/gpaw (10808453a8)
_gpaw:  /zhome/87/8/147075/venv-name/gpaw/
        _gpaw.cpython-38-x86_64-linux-gnu.so (10808453a8)
ase:    /zhome/87/8/147075/venv-name/ase/ase (version 3.23.0b1-c36115a2db)
numpy:  /zhome/87/8/147075/venv-name/lib/python3.8/site-packages/numpy (version 1.24.4)
scipy:  /zhome/87/8/147075/venv-name/lib/python3.8/site-packages/scipy (version 1.10.1)
libxc:  4.3.4
units:  Angstrom and eV
cores: 12
OpenMP: False
OMP_NUM_THREADS: 1

---
input parameters:
  kpts: 
    density: 6.0
    gamma: True
  magmoms: [[1.28782608, 0, 0], [0.19870794, 0, 0], [0.19870794, 0, 0]]
  mixer: 
    backend: 'pulay'
    beta: 0.05
    method: 'sum'
    nmaxold: 5
    weight: 100
  mode: 
    name: 'pw'
    ecut: 600.0
    qspiral: array([0.07751938, 0.07751938, 0.        ])
  parallel: 
    kpt: None
    domain: 1
    band: 1
    order: 'kdb'
    stridebands: False
    augment_grids: False
    sl_auto: False
    sl_default: None
    sl_diagonalize: None
    sl_inverse_cholesky: None
    sl_lcao: None
    sl_lrtddft: None
    use_elpa: False
    elpasolver: '2stage'
    buffer_size: None
    gpu: False
  symmetry: 
    point_group: False
    time_reversal: False
  xc: 
    name: 'LDA'

#                        
#                        
#                        
#                        
#                        
#              I         
#                        
#        Ni              
#          I             
#                        
#                        
#                        
#                        
#                        

atoms: [  # symbols, positions [Ang] and initial magnetic moments
  [ Ni, [   0.000000,    0.000000,    7.513573], [ 1.288,  0.000,  0.000]], # 0
  [  I, [   1.984831,    1.145943,    9.027147], [ 0.199,  0.000,  0.000]], # 1
  [  I, [   0.000000,    2.291885,    6.000000], [ 0.199,  0.000,  0.000]]] # 2

cell: [  # Ang
#     x            y            z
  [   3.969662,    0.000000,    0.000000],
  [  -1.984831,    3.437828,    0.000000],
  [   0.000000,    0.000000,   15.027147]]

periodic: [True      , True      , False     ]
lengths:  [  3.969662,   3.969662,  15.027147]  # Ang
angles:   [ 90.000000,  90.000000, 120.000000]

symmetry:
  number of symmetries: 1
  rotations: [
    [[ 1,  0,  0], [ 0,  1,  0], [ 0,  0,  1]]]

bz sampling:
  number of bz points: 121
  number of ibz points: 121
  monkhorst-pack size: [11, 11, 1]
  monkhorst-pack shift: [0, 0, 0]
  points and weights: [
    [[ -0.45454545,  -0.45454545,   0.00000000], 0.00826446],  # 0
    [[ -0.45454545,  -0.36363636,   0.00000000], 0.00826446],  # 1
    [[ -0.45454545,  -0.27272727,   0.00000000], 0.00826446],  # 2
    [[ -0.45454545,  -0.18181818,   0.00000000], 0.00826446],  # 3
    [[ -0.45454545,  -0.09090909,   0.00000000], 0.00826446],  # 4
    [[ -0.45454545,   0.00000000,   0.00000000], 0.00826446],  # 5
    [[ -0.45454545,   0.09090909,   0.00000000], 0.00826446],  # 6
    [[ -0.45454545,   0.18181818,   0.00000000], 0.00826446],  # 7
    [[ -0.45454545,   0.27272727,   0.00000000], 0.00826446],  # 8
    [[ -0.45454545,   0.36363636,   0.00000000], 0.00826446],  # 9
    # ...
    [[  0.45454545,   0.45454545,   0.00000000], 0.00826446]]  # 120

plane wave coefficients: 6874
cutoff: 600.0 eV

spin-components: 4  # (non-collinear spins)
bands: 40
valence electrons: 30.0
spin-degeneracy: 1
dtype: complex128

memory:
    wave functions: 1_060_928_000  # bytes  (88_410_666 per core)

parallelization:
    kpt:    12
    domain: 1
    band:   1

density:
  components: 4
  grid points: [24 24 90]
  charge: 0.0  # |e|

potential:
  grid points: [24 24 90]

species:
  Ni:
    name: Nickel
    id: 1802175e8de9ea26d9f4394ec1a7d564
    Z: 28.0
    valence: 16
    core: 12
    charge: 0.0
    file: /zhome/86/d/1666/PAW/gpaw-setups-0.9.20000/Ni.LDA.gz
    compensation charges: {type: gauss,
                           rc: 0.36,
                           lmax: 2}
    cutoffs: {filter: 2.14,
              core: 1.98}
    valence states:
      #              energy  rcut
      - 4s(2.00)    -5.858   1.164
      - 3p(6.00)   -71.266   1.207
      - 4p(0.00)    -1.338   1.207
      - 3d(8.00)    -9.141   1.138
      -  s          21.353   1.164
      -  d          18.071   1.138
  
    # Using partial waves for Ni as LCAO basis

  I:
    name: Iodine
    id: b559721c0c096a7b4c8fc0e0f4de5cf4
    Z: 53.0
    valence: 7
    core: 46
    charge: 0.0
    file: /zhome/86/d/1666/PAW/gpaw-setups-0.9.20000/I.LDA.gz
    compensation charges: {type: gauss,
                           rc: 0.37,
                           lmax: 2}
    cutoffs: {filter: 2.06,
              core: 2.90}
    valence states:
      #              energy  rcut
      - 5s(2.00)   -17.626   1.164
      - 5p(5.00)    -7.241   1.164
      -  s           9.585   1.164
      -  p          19.970   1.164
      -  d           0.000   1.164
  
    # Using partial waves for I as LCAO basis

Reference energy: -428067.566327  # eV

eigensolver:
  name: 'Davidson'
  niter: 2
  converge_bands: 'occupied'
Density mixing:
  Method: sum
  Backend: pulay
  Linear mixing parameter: 0.05
  old densities: 5
  Damping of long wavelength oscillations: 100
occupation numbers:
  Fermi-Dirac:
    width: 0.1000  # eV
  

poisson solver:
  ecut: 4800.0  # eV

xc functional:
  name: None

convergence criteria:
- Maximum [total energy] change in last 3 cyles: 0.0005 eV / valence electron
- Maximum integral of absolute [dens]ity change: 0.0001 electrons / valence electron
- Maximum integral of absolute [eigenst]ate change: 4e-08 eV^2 / valence electron
maximum number of iterations: 333

#      iter     time        total  log10-change:
#                          energy   eigst   dens
# iter:   1 15:16:58   -13.816288                  +1.7,+0.0,+0.0
# iter:   2 15:17:14   -12.665625   -0.45  -1.32   +1.5,-0.0,+0.0
# iter:   3 15:17:31   -12.247910   -0.74  -1.46   +1.5,-0.0,+0.0
# iter:   4 15:17:49   -12.308061   -1.44  -1.68   +1.6,-0.0,+0.0
# iter:   5 15:18:05   -12.498673   -1.58  -1.66   +1.6,+0.0,+0.0
# iter:   6 15:18:22   -12.326800   -1.82  -1.80   +1.7,+0.0,+0.0
# iter:   7 15:18:39   -12.312266   -2.18  -2.17   +1.7,+0.0,+0.0
# iter:   8 15:18:56   -12.307873   -2.46  -2.33   +1.7,+0.0,+0.0
# iter:   9 15:19:12   -12.306401c  -2.56  -2.54   +1.7,+0.0,+0.0
# iter:  10 15:19:29   -12.307769c  -2.90  -3.02   +1.7,+0.0,+0.0
# iter:  11 15:19:45   -12.309917c  -3.09  -2.96   +1.7,+0.0,+0.0
# iter:  12 15:20:02   -12.307503c  -3.23  -2.85   +1.7,+0.0,+0.0
# iter:  13 15:20:19   -12.307398c  -3.46  -3.39   +1.7,+0.0,+0.0
# iter:  14 15:20:35   -12.307381c  -3.64  -3.62   +1.7,+0.0,+0.0
# iter:  15 15:20:52   -12.307621c  -3.76  -3.77   +1.7,+0.0,+0.0
# iter:  16 15:21:08   -12.307782c  -3.96  -3.66   +1.7,+0.0,+0.0
# iter:  17 15:21:25   -12.307790c  -4.13  -3.79   +1.7,+0.0,+0.0
# iter:  18 15:21:42   -12.307763c  -4.29  -4.07c  +1.7,+0.0,+0.0
# iter:  19 15:21:58   -12.307782c  -4.45  -4.25c  +1.7,+0.0,+0.0
# iter:  20 15:22:15   -12.308038c  -4.57  -4.26c  +1.7,+0.0,+0.0
# iter:  21 15:22:31   -12.308089c  -4.75  -4.19c  +1.7,+0.0,+0.0
# iter:  22 15:22:47   -12.308017c  -4.91  -4.35c  +1.7,+0.0,+0.0
# iter:  23 15:23:04   -12.308145c  -5.06  -4.18c  +1.7,+0.0,+0.0
# iter:  24 15:23:20   -12.308143c  -5.22  -4.39c  +1.7,+0.0,+0.0
# iter:  25 15:23:37   -12.308086c  -5.39  -4.42c  +1.7,+0.0,+0.0
# iter:  26 15:23:53   -12.308208c  -5.52  -4.38c  +1.7,+0.0,-0.0
# iter:  27 15:24:10   -12.308283c  -5.66  -4.38c  +1.7,+0.0,+0.0
# iter:  28 15:24:26   -12.308286c  -5.82  -4.49c  +1.7,+0.0,+0.0
# iter:  29 15:24:43   -12.308223c  -5.96  -4.61c  +1.7,+0.0,-0.0
# iter:  30 15:24:59   -12.308222c  -6.12  -5.21c  +1.7,+0.0,-0.0
# iter:  31 15:25:15   -12.308214c  -6.27  -5.46c  +1.7,+0.0,-0.0
# iter:  32 15:25:32   -12.308216c  -6.42  -5.57c  +1.7,+0.0,-0.0
# iter:  33 15:25:48   -12.308219c  -6.57  -5.59c  +1.7,+0.0,+0.0
# iter:  34 15:26:05   -12.308220c  -6.71  -5.66c  +1.7,+0.0,+0.0
# iter:  35 15:26:21   -12.308221c  -6.86  -5.71c  +1.7,+0.0,-0.0
# iter:  36 15:26:38   -12.308223c  -7.01  -5.72c  +1.7,+0.0,+0.0
# iter:  37 15:26:54   -12.308222c  -7.16  -5.77c  +1.7,+0.0,-0.0
# iter:  38 15:27:11   -12.308223c  -7.31  -5.76c  +1.7,+0.0,-0.0
# iter:  39 15:27:27   -12.308222c  -7.46c -5.76c  +1.7,+0.0,-0.0
scf_steps: 39
energies:  # eV
  coulomb:          -7.878588
  zero:              0.066265
  xc:              -14.936449
  external:          0.000000
  kinetic:          10.462049
  spinorbit:         0.000000
  entropy:          -0.042999
  total:           -12.329721
  extrapolated:    -12.308222

dipole moment: [-4.086331, -7.077303, -5.747332]  # |e|*Ang

total magnetic moment: [1.737551, 0.013220, -0.000000]

local magnetic moments: [
  [ 1.143343, -0.005542,  0.000000],  # Ni 0
  [ 0.148385, -0.079511, -0.000000],  # I  1
  [ 0.148382, -0.079516, -0.000000]]  # I  2


Fermi level: -1.184 eV

kpt = [-0.455, -0.455, 0.000], weight = 0.008:
  Band      eig [eV]   occ [0-1]
     0       -64.970       1.000
   ...
    22        -3.131       1.000
    23        -2.984       1.000
    24        -2.912       1.000
    25        -2.293       1.000
    26        -2.154       1.000
    27        -2.129       1.000
    28        -1.645       0.990
    29        -1.624       0.988
    30        -0.689       0.007
    31        -0.670       0.006
    32         1.566       0.000
    33         2.273       0.000
    34         3.626       0.000
    35         4.557       0.000
    36         4.607       0.000
    37         4.680       0.000
   ...
    39         5.144       0.000

kpt = [-0.455, -0.364, 0.000], weight = 0.008:
  Band      eig [eV]   occ [0-1]
     0       -64.970       1.000
   ...
    22        -3.061       1.000
    23        -2.941       1.000
    24        -2.815       1.000
    25        -2.274       1.000
    26        -2.143       1.000
    27        -2.075       1.000
    28        -1.832       0.998
    29        -1.652       0.991
    30        -0.867       0.040
    31        -0.721       0.010
    32         1.923       0.000
    33         2.598       0.000
    34         4.145       0.000
    35         4.532       0.000
    36         4.663       0.000
    37         4.899       0.000
   ...
    39         5.503       0.000

kpt = [-0.455, -0.273, 0.000], weight = 0.008:
  Band      eig [eV]   occ [0-1]
     0       -64.970       1.000
   ...
    22        -3.034       1.000
    23        -2.916       1.000
    24        -2.743       1.000
    25        -2.270       1.000
    26        -2.141       1.000
    27        -2.080       1.000
    28        -1.910       0.999
    29        -1.660       0.992
    30        -1.003       0.141
    31        -0.738       0.012
    32         2.426       0.000
    33         2.620       0.000
    34         4.301       0.000
    35         4.616       0.000
    36         5.057       0.000
    37         5.139       0.000
   ...
    39         5.749       0.000
(only showing first 3 out of 121 k-points)

No gap
# Writing to Band/gsq-90.gpw (mode='')

