#  __  _  _
# | _ |_)|_||  |
# |__||  | ||/\| - 24.1.0

User:   s194113@n-62-28-16
Date:   Fri Apr 26 13:06:06 2024
Arch:   x86_64
Pid:    5951
CWD:    /work3/s194113/10302/10302_NM/NiI2
Python: 3.8.5
gpaw:   /zhome/87/8/147075/venv-name/gpaw/gpaw (10808453a8)
_gpaw:  /zhome/87/8/147075/venv-name/gpaw/
        _gpaw.cpython-38-x86_64-linux-gnu.so (10808453a8)
ase:    /zhome/87/8/147075/venv-name/ase/ase (version 3.23.0b1-c36115a2db)
numpy:  /zhome/87/8/147075/venv-name/lib/python3.8/site-packages/numpy (version 1.24.4)
scipy:  /zhome/87/8/147075/venv-name/lib/python3.8/site-packages/scipy (version 1.10.1)
libxc:  4.3.4
units:  Angstrom and eV
cores: 12
OpenMP: False
OMP_NUM_THREADS: 1

---
input parameters:
  kpts: 
    density: 6.0
    gamma: True
  magmoms: [[1.28782608, 0, 0], [0.19870794, 0, 0], [0.19870794, 0, 0]]
  mixer: 
    backend: 'pulay'
    beta: 0.05
    method: 'sum'
    nmaxold: 5
    weight: 100
  mode: 
    name: 'pw'
    ecut: 600.0
    qspiral: array([0.1627907, 0.1627907, 0.       ])
  parallel: 
    kpt: None
    domain: 1
    band: 1
    order: 'kdb'
    stridebands: False
    augment_grids: False
    sl_auto: False
    sl_default: None
    sl_diagonalize: None
    sl_inverse_cholesky: None
    sl_lcao: None
    sl_lrtddft: None
    use_elpa: False
    elpasolver: '2stage'
    buffer_size: None
    gpu: False
  symmetry: 
    point_group: False
    time_reversal: False
  xc: 
    name: 'LDA'

#                        
#                        
#                        
#                        
#                        
#              I         
#                        
#        Ni              
#          I             
#                        
#                        
#                        
#                        
#                        

atoms: [  # symbols, positions [Ang] and initial magnetic moments
  [ Ni, [   0.000000,    0.000000,    7.513573], [ 1.288,  0.000,  0.000]], # 0
  [  I, [   1.984831,    1.145943,    9.027147], [ 0.199,  0.000,  0.000]], # 1
  [  I, [   0.000000,    2.291885,    6.000000], [ 0.199,  0.000,  0.000]]] # 2

cell: [  # Ang
#     x            y            z
  [   3.969662,    0.000000,    0.000000],
  [  -1.984831,    3.437828,    0.000000],
  [   0.000000,    0.000000,   15.027147]]

periodic: [True      , True      , False     ]
lengths:  [  3.969662,   3.969662,  15.027147]  # Ang
angles:   [ 90.000000,  90.000000, 120.000000]

symmetry:
  number of symmetries: 1
  rotations: [
    [[ 1,  0,  0], [ 0,  1,  0], [ 0,  0,  1]]]

bz sampling:
  number of bz points: 121
  number of ibz points: 121
  monkhorst-pack size: [11, 11, 1]
  monkhorst-pack shift: [0, 0, 0]
  points and weights: [
    [[ -0.45454545,  -0.45454545,   0.00000000], 0.00826446],  # 0
    [[ -0.45454545,  -0.36363636,   0.00000000], 0.00826446],  # 1
    [[ -0.45454545,  -0.27272727,   0.00000000], 0.00826446],  # 2
    [[ -0.45454545,  -0.18181818,   0.00000000], 0.00826446],  # 3
    [[ -0.45454545,  -0.09090909,   0.00000000], 0.00826446],  # 4
    [[ -0.45454545,   0.00000000,   0.00000000], 0.00826446],  # 5
    [[ -0.45454545,   0.09090909,   0.00000000], 0.00826446],  # 6
    [[ -0.45454545,   0.18181818,   0.00000000], 0.00826446],  # 7
    [[ -0.45454545,   0.27272727,   0.00000000], 0.00826446],  # 8
    [[ -0.45454545,   0.36363636,   0.00000000], 0.00826446],  # 9
    # ...
    [[  0.45454545,   0.45454545,   0.00000000], 0.00826446]]  # 120

plane wave coefficients: 6874
cutoff: 600.0 eV

spin-components: 4  # (non-collinear spins)
bands: 40
valence electrons: 30.0
spin-degeneracy: 1
dtype: complex128

memory:
    wave functions: 1_060_928_000  # bytes  (88_410_666 per core)

parallelization:
    kpt:    12
    domain: 1
    band:   1

density:
  components: 4
  grid points: [24 24 90]
  charge: 0.0  # |e|

potential:
  grid points: [24 24 90]

species:
  Ni:
    name: Nickel
    id: 1802175e8de9ea26d9f4394ec1a7d564
    Z: 28.0
    valence: 16
    core: 12
    charge: 0.0
    file: /zhome/86/d/1666/PAW/gpaw-setups-0.9.20000/Ni.LDA.gz
    compensation charges: {type: gauss,
                           rc: 0.36,
                           lmax: 2}
    cutoffs: {filter: 2.14,
              core: 1.98}
    valence states:
      #              energy  rcut
      - 4s(2.00)    -5.858   1.164
      - 3p(6.00)   -71.266   1.207
      - 4p(0.00)    -1.338   1.207
      - 3d(8.00)    -9.141   1.138
      -  s          21.353   1.164
      -  d          18.071   1.138
  
    # Using partial waves for Ni as LCAO basis

  I:
    name: Iodine
    id: b559721c0c096a7b4c8fc0e0f4de5cf4
    Z: 53.0
    valence: 7
    core: 46
    charge: 0.0
    file: /zhome/86/d/1666/PAW/gpaw-setups-0.9.20000/I.LDA.gz
    compensation charges: {type: gauss,
                           rc: 0.37,
                           lmax: 2}
    cutoffs: {filter: 2.06,
              core: 2.90}
    valence states:
      #              energy  rcut
      - 5s(2.00)   -17.626   1.164
      - 5p(5.00)    -7.241   1.164
      -  s           9.585   1.164
      -  p          19.970   1.164
      -  d           0.000   1.164
  
    # Using partial waves for I as LCAO basis

Reference energy: -428067.566327  # eV

eigensolver:
  name: 'Davidson'
  niter: 2
  converge_bands: 'occupied'
Density mixing:
  Method: sum
  Backend: pulay
  Linear mixing parameter: 0.05
  old densities: 5
  Damping of long wavelength oscillations: 100
occupation numbers:
  Fermi-Dirac:
    width: 0.1000  # eV
  

poisson solver:
  ecut: 4800.0  # eV

xc functional:
  name: None

convergence criteria:
- Maximum [total energy] change in last 3 cyles: 0.0005 eV / valence electron
- Maximum integral of absolute [dens]ity change: 0.0001 electrons / valence electron
- Maximum integral of absolute [eigenst]ate change: 4e-08 eV^2 / valence electron
maximum number of iterations: 333

#      iter     time        total  log10-change:
#                          energy   eigst   dens
# iter:   1 13:06:33   -13.591078                  +1.7,+0.0,+0.0
# iter:   2 13:06:50   -12.634383   -0.10  -1.31   +1.4,-0.0,+0.0
# iter:   3 13:07:06   -12.246353   -0.58  -1.46   +1.3,-0.0,+0.0
# iter:   4 13:07:23   -12.319630   -1.23  -1.68   +1.4,-0.0,+0.0
# iter:   5 13:07:40   -12.504478   -1.41  -1.66   +1.4,+0.0,+0.0
# iter:   6 13:07:56   -12.335573   -1.64  -1.81   +1.4,+0.0,-0.0
# iter:   7 13:08:13   -12.322671   -1.92  -2.17   +1.4,+0.0,-0.0
# iter:   8 13:08:29   -12.312063   -2.11  -2.33   +1.5,+0.0,-0.0
# iter:   9 13:08:46   -12.313606c  -2.31  -2.78   +1.5,+0.0,-0.0
# iter:  10 13:09:03   -12.314435c  -2.52  -3.00   +1.5,+0.0,-0.0
# iter:  11 13:09:19   -12.313567c  -2.65  -2.96   +1.5,+0.0,+0.0
# iter:  12 13:09:36   -12.313884c  -2.85  -3.22   +1.5,+0.0,+0.0
# iter:  13 13:09:52   -12.314033c  -3.00  -3.75   +1.5,+0.0,+0.0
# iter:  14 13:10:09   -12.314071c  -3.15  -3.90   +1.5,+0.0,+0.0
# iter:  15 13:10:26   -12.314240c  -3.29  -3.94   +1.5,+0.0,+0.0
# iter:  16 13:10:42   -12.314381c  -3.42  -4.07c  +1.5,+0.0,+0.0
# iter:  17 13:10:59   -12.314474c  -3.56  -4.11c  +1.5,+0.0,+0.0
# iter:  18 13:11:15   -12.314484c  -3.70  -4.14c  +1.5,+0.0,+0.0
# iter:  19 13:11:32   -12.314509c  -3.84  -4.30c  +1.5,+0.0,+0.0
# iter:  20 13:11:49   -12.314519c  -3.98  -4.42c  +1.5,+0.0,+0.0
# iter:  21 13:12:05   -12.314532c  -4.11  -4.42c  +1.5,+0.0,+0.0
# iter:  22 13:12:22   -12.314559c  -4.25  -4.38c  +1.5,+0.0,+0.0
# iter:  23 13:12:38   -12.314621c  -4.39  -4.46c  +1.5,+0.0,+0.0
# iter:  24 13:12:55   -12.314646c  -4.53  -4.29c  +1.5,+0.0,+0.0
# iter:  25 13:13:11   -12.314697c  -4.67  -4.55c  +1.5,+0.0,+0.0
# iter:  26 13:13:28   -12.314691c  -4.81  -4.35c  +1.5,+0.0,+0.0
# iter:  27 13:13:44   -12.314698c  -4.95  -4.59c  +1.5,+0.0,+0.0
# iter:  28 13:14:01   -12.314734c  -5.08  -4.65c  +1.5,+0.0,-0.0
# iter:  29 13:14:17   -12.314717c  -5.21  -4.67c  +1.5,+0.0,-0.0
# iter:  30 13:14:34   -12.314723c  -5.35  -4.82c  +1.5,+0.0,+0.0
# iter:  31 13:14:50   -12.314724c  -5.48  -5.40c  +1.5,+0.0,+0.0
# iter:  32 13:15:07   -12.314726c  -5.62  -5.64c  +1.5,+0.0,+0.0
# iter:  33 13:15:24   -12.314730c  -5.76  -5.72c  +1.5,+0.0,+0.0
# iter:  34 13:15:40   -12.314731c  -5.90  -5.90c  +1.5,+0.0,-0.0
# iter:  35 13:15:57   -12.314730c  -6.04  -6.00c  +1.5,+0.0,+0.0
# iter:  36 13:16:13   -12.314730c  -6.17  -6.12c  +1.5,+0.0,+0.0
# iter:  37 13:16:30   -12.314729c  -6.31  -6.14c  +1.5,+0.0,-0.0
# iter:  38 13:16:46   -12.314729c  -6.45  -6.23c  +1.5,+0.0,-0.0
# iter:  39 13:17:03   -12.314727c  -6.60  -6.30c  +1.5,+0.0,-0.0
# iter:  40 13:17:19   -12.314727c  -6.74  -6.47c  +1.5,+0.0,-0.0
# iter:  41 13:17:36   -12.314727c  -6.88  -6.48c  +1.5,+0.0,-0.0
# iter:  42 13:17:53   -12.314727c  -7.02  -6.47c  +1.5,+0.0,+0.0
# iter:  43 13:18:09   -12.314727c  -7.16  -6.43c  +1.5,+0.0,+0.0
# iter:  44 13:18:26   -12.314727c  -7.30  -6.45c  +1.5,+0.0,+0.0
# iter:  45 13:18:42   -12.314727c  -7.45c -6.43c  +1.5,+0.0,+0.0
scf_steps: 45
energies:  # eV
  coulomb:          -7.648635
  zero:              0.066683
  xc:              -14.894216
  external:          0.000000
  kinetic:          10.179769
  spinorbit:         0.000000
  entropy:          -0.036655
  total:           -12.333054
  extrapolated:    -12.314727

dipole moment: [-3.851879, -6.670889, -3.920865]  # |e|*Ang

total magnetic moment: [1.502162, 0.018267, 0.000000]

local magnetic moments: [
  [ 1.128162, -0.007338, -0.000000],  # Ni 0
  [ 0.062203, -0.103384,  0.000000],  # I  1
  [ 0.062161, -0.103409,  0.000000]]  # I  2


Fermi level: -1.185 eV

kpt = [-0.455, -0.455, 0.000], weight = 0.008:
  Band      eig [eV]   occ [0-1]
     0       -64.954       1.000
   ...
    22        -3.063       1.000
    23        -2.921       1.000
    24        -2.853       1.000
    25        -2.301       1.000
    26        -2.146       1.000
    27        -2.116       1.000
    28        -1.748       0.996
    29        -1.663       0.992
    30        -0.791       0.019
    31        -0.756       0.013
    32         1.727       0.000
    33         2.553       0.000
    34         3.880       0.000
    35         4.648       0.000
    36         4.703       0.000
    37         4.757       0.000
   ...
    39         5.644       0.000

kpt = [-0.455, -0.364, 0.000], weight = 0.008:
  Band      eig [eV]   occ [0-1]
     0       -64.954       1.000
   ...
    22        -3.036       1.000
    23        -2.921       1.000
    24        -2.872       1.000
    25        -2.376       1.000
    26        -2.145       1.000
    27        -2.139       1.000
    28        -1.730       0.996
    29        -1.598       0.984
    30        -0.818       0.025
    31        -0.692       0.007
    32         1.609       0.000
    33         2.585       0.000
    34         3.652       0.000
    35         4.445       0.000
    36         4.743       0.000
    37         4.823       0.000
   ...
    39         5.991       0.000

kpt = [-0.455, -0.273, 0.000], weight = 0.008:
  Band      eig [eV]   occ [0-1]
     0       -64.954       1.000
   ...
    22        -2.965       1.000
    23        -2.917       1.000
    24        -2.784       1.000
    25        -2.388       1.000
    26        -2.147       1.000
    27        -2.131       1.000
    28        -1.734       0.996
    29        -1.563       0.978
    30        -0.901       0.056
    31        -0.728       0.010
    32         2.055       0.000
    33         2.393       0.000
    34         4.172       0.000
    35         4.602       0.000
    36         4.616       0.000
    37         4.980       0.000
   ...
    39         5.464       0.000
(only showing first 3 out of 121 k-points)

Gap: 0.362 eV
Transition (v -> c):
  (s=0, k=60, n=29, [0.00, 0.00, 0.00]) -> (s=0, k=24, n=30, [-0.27, -0.27, 0.00])
# Writing to Band/gsq-79.gpw (mode='')

---

timing:  # [seconds]
  Total: 756.172  # ━━━━━━━━━━━━━━━━━━━━━━━━━━━━━━━━━━━━━━━━━━━━━━━━━━━━━━━━━
  Init:   10.596  # ━
  SCF:   745.262  # ━━━━━━━━━━━━━━━━━━━━━━━━━━━━━━━━━━━━━━━━━━━━━━━━━━━━━━━━

Max RSS: 2937.992  # MiB
