#  __  _  _
# | _ |_)|_||  |
# |__||  | ||/\| - 24.1.0

User:   s194113@n-62-28-16
Date:   Fri Apr 26 03:31:31 2024
Arch:   x86_64
Pid:    5951
CWD:    /work3/s194113/10302/10302_NM/NiI2
Python: 3.8.5
gpaw:   /zhome/87/8/147075/venv-name/gpaw/gpaw (10808453a8)
_gpaw:  /zhome/87/8/147075/venv-name/gpaw/
        _gpaw.cpython-38-x86_64-linux-gnu.so (10808453a8)
ase:    /zhome/87/8/147075/venv-name/ase/ase (version 3.23.0b1-c36115a2db)
numpy:  /zhome/87/8/147075/venv-name/lib/python3.8/site-packages/numpy (version 1.24.4)
scipy:  /zhome/87/8/147075/venv-name/lib/python3.8/site-packages/scipy (version 1.10.1)
libxc:  4.3.4
units:  Angstrom and eV
cores: 12
OpenMP: False
OMP_NUM_THREADS: 1

---
input parameters:
  kpts: 
    density: 6.0
    gamma: True
  magmoms: [[1.28782608, 0, 0], [0.19870794, 0, 0], [0.19870794, 0, 0]]
  mixer: 
    backend: 'pulay'
    beta: 0.05
    method: 'sum'
    nmaxold: 5
    weight: 100
  mode: 
    name: 'pw'
    ecut: 600.0
    qspiral: array([0.48412698, 0.03174603, 0.        ])
  parallel: 
    kpt: None
    domain: 1
    band: 1
    order: 'kdb'
    stridebands: False
    augment_grids: False
    sl_auto: False
    sl_default: None
    sl_diagonalize: None
    sl_inverse_cholesky: None
    sl_lcao: None
    sl_lrtddft: None
    use_elpa: False
    elpasolver: '2stage'
    buffer_size: None
    gpu: False
  symmetry: 
    point_group: False
    time_reversal: False
  xc: 
    name: 'LDA'

#                        
#                        
#                        
#                        
#                        
#              I         
#                        
#        Ni              
#          I             
#                        
#                        
#                        
#                        
#                        

atoms: [  # symbols, positions [Ang] and initial magnetic moments
  [ Ni, [   0.000000,    0.000000,    7.513573], [ 1.288,  0.000,  0.000]], # 0
  [  I, [   1.984831,    1.145943,    9.027147], [ 0.199,  0.000,  0.000]], # 1
  [  I, [   0.000000,    2.291885,    6.000000], [ 0.199,  0.000,  0.000]]] # 2

cell: [  # Ang
#     x            y            z
  [   3.969662,    0.000000,    0.000000],
  [  -1.984831,    3.437828,    0.000000],
  [   0.000000,    0.000000,   15.027147]]

periodic: [True      , True      , False     ]
lengths:  [  3.969662,   3.969662,  15.027147]  # Ang
angles:   [ 90.000000,  90.000000, 120.000000]

symmetry:
  number of symmetries: 1
  rotations: [
    [[ 1,  0,  0], [ 0,  1,  0], [ 0,  0,  1]]]

bz sampling:
  number of bz points: 121
  number of ibz points: 121
  monkhorst-pack size: [11, 11, 1]
  monkhorst-pack shift: [0, 0, 0]
  points and weights: [
    [[ -0.45454545,  -0.45454545,   0.00000000], 0.00826446],  # 0
    [[ -0.45454545,  -0.36363636,   0.00000000], 0.00826446],  # 1
    [[ -0.45454545,  -0.27272727,   0.00000000], 0.00826446],  # 2
    [[ -0.45454545,  -0.18181818,   0.00000000], 0.00826446],  # 3
    [[ -0.45454545,  -0.09090909,   0.00000000], 0.00826446],  # 4
    [[ -0.45454545,   0.00000000,   0.00000000], 0.00826446],  # 5
    [[ -0.45454545,   0.09090909,   0.00000000], 0.00826446],  # 6
    [[ -0.45454545,   0.18181818,   0.00000000], 0.00826446],  # 7
    [[ -0.45454545,   0.27272727,   0.00000000], 0.00826446],  # 8
    [[ -0.45454545,   0.36363636,   0.00000000], 0.00826446],  # 9
    # ...
    [[  0.45454545,   0.45454545,   0.00000000], 0.00826446]]  # 120

plane wave coefficients: 6874
cutoff: 600.0 eV

spin-components: 4  # (non-collinear spins)
bands: 40
valence electrons: 30.0
spin-degeneracy: 1
dtype: complex128

memory:
    wave functions: 1_060_928_000  # bytes  (88_410_666 per core)

parallelization:
    kpt:    12
    domain: 1
    band:   1

density:
  components: 4
  grid points: [24 24 90]
  charge: 0.0  # |e|

potential:
  grid points: [24 24 90]

species:
  Ni:
    name: Nickel
    id: 1802175e8de9ea26d9f4394ec1a7d564
    Z: 28.0
    valence: 16
    core: 12
    charge: 0.0
    file: /zhome/86/d/1666/PAW/gpaw-setups-0.9.20000/Ni.LDA.gz
    compensation charges: {type: gauss,
                           rc: 0.36,
                           lmax: 2}
    cutoffs: {filter: 2.14,
              core: 1.98}
    valence states:
      #              energy  rcut
      - 4s(2.00)    -5.858   1.164
      - 3p(6.00)   -71.266   1.207
      - 4p(0.00)    -1.338   1.207
      - 3d(8.00)    -9.141   1.138
      -  s          21.353   1.164
      -  d          18.071   1.138
  
    # Using partial waves for Ni as LCAO basis

  I:
    name: Iodine
    id: b559721c0c096a7b4c8fc0e0f4de5cf4
    Z: 53.0
    valence: 7
    core: 46
    charge: 0.0
    file: /zhome/86/d/1666/PAW/gpaw-setups-0.9.20000/I.LDA.gz
    compensation charges: {type: gauss,
                           rc: 0.37,
                           lmax: 2}
    cutoffs: {filter: 2.06,
              core: 2.90}
    valence states:
      #              energy  rcut
      - 5s(2.00)   -17.626   1.164
      - 5p(5.00)    -7.241   1.164
      -  s           9.585   1.164
      -  p          19.970   1.164
      -  d           0.000   1.164
  
    # Using partial waves for I as LCAO basis

Reference energy: -428067.566327  # eV

eigensolver:
  name: 'Davidson'
  niter: 2
  converge_bands: 'occupied'
Density mixing:
  Method: sum
  Backend: pulay
  Linear mixing parameter: 0.05
  old densities: 5
  Damping of long wavelength oscillations: 100
occupation numbers:
  Fermi-Dirac:
    width: 0.1000  # eV
  

poisson solver:
  ecut: 4800.0  # eV

xc functional:
  name: None

convergence criteria:
- Maximum [total energy] change in last 3 cyles: 0.0005 eV / valence electron
- Maximum integral of absolute [dens]ity change: 0.0001 electrons / valence electron
- Maximum integral of absolute [eigenst]ate change: 4e-08 eV^2 / valence electron
maximum number of iterations: 333

#      iter     time        total  log10-change:
#                          energy   eigst   dens
# iter:   1 03:31:57   -12.885848                  +1.7,+0.0,+0.0
# iter:   2 03:32:14   -12.440779   +0.33  -1.31   +1.1,-0.0,+0.0
# iter:   3 03:32:31   -12.158512   -0.31  -1.45   +1.0,-0.0,-0.0
# iter:   4 03:32:48   -12.215231   -0.86  -1.68   +1.0,-0.0,-0.0
# iter:   5 03:33:05   -12.558531   -1.03  -1.67   +1.0,-0.0,-0.0
# iter:   6 03:33:22   -12.242721   -1.24  -1.68   +1.0,-0.0,-0.0
# iter:   7 03:33:39   -12.248453   -1.52  -2.25   +1.0,+0.0,-0.0
# iter:   8 03:33:55   -12.243360c  -1.70  -2.35   +1.0,+0.0,-0.0
# iter:   9 03:34:12   -12.244594c  -1.85  -2.62   +1.1,+0.0,-0.0
# iter:  10 03:34:29   -12.245394c  -2.02  -3.05   +1.1,+0.0,-0.0
# iter:  11 03:34:45   -12.251531c  -2.16  -3.03   +1.1,+0.0,-0.0
# iter:  12 03:35:02   -12.253162c  -2.31  -2.70   +1.1,+0.0,-0.0
# iter:  13 03:35:19   -12.253753c  -2.46  -2.64   +1.1,+0.0,-0.0
# iter:  14 03:35:36   -12.253762c  -2.59  -2.63   +1.1,+0.0,-0.0
# iter:  15 03:35:52   -12.246129c  -2.66  -2.63   +1.1,+0.0,-0.0
# iter:  16 03:36:09   -12.245522c  -2.84  -3.07   +1.1,+0.0,+0.0
# iter:  17 03:36:25   -12.246171c  -3.00  -3.20   +1.1,+0.0,+0.0
# iter:  18 03:36:42   -12.246487c  -3.12  -3.24   +1.1,+0.0,+0.0
# iter:  19 03:36:59   -12.247586c  -3.26  -3.37   +1.1,+0.0,+0.0
# iter:  20 03:37:15   -12.247900c  -3.40  -3.39   +1.1,+0.0,+0.0
# iter:  21 03:37:32   -12.248088c  -3.53  -3.44   +1.1,+0.0,+0.0
# iter:  22 03:37:49   -12.248594c  -3.66  -3.47   +1.1,+0.0,+0.0
# iter:  23 03:38:05   -12.249071c  -3.69  -3.52   +1.1,+0.0,+0.0
# iter:  24 03:38:22   -12.249864c  -3.93  -3.36   +1.1,+0.0,+0.0
# iter:  25 03:38:38   -12.250139c  -4.07  -4.00c  +1.1,+0.0,+0.0
# iter:  26 03:38:55   -12.250140c  -4.20  -4.14c  +1.1,+0.0,+0.0
# iter:  27 03:39:12   -12.250280c  -4.33  -4.20c  +1.1,+0.0,+0.0
# iter:  28 03:39:28   -12.250289c  -4.47  -4.31c  +1.1,+0.0,+0.0
# iter:  29 03:39:45   -12.250265c  -4.60  -4.32c  +1.1,+0.0,+0.0
# iter:  30 03:40:01   -12.250380c  -4.74  -4.36c  +1.1,+0.0,+0.0
# iter:  31 03:40:18   -12.250389c  -4.89  -4.36c  +1.1,+0.0,+0.0
# iter:  32 03:40:35   -12.250455c  -5.03  -4.37c  +1.1,+0.0,+0.0
# iter:  33 03:40:51   -12.250513c  -5.18  -4.41c  +1.1,+0.0,+0.0
# iter:  34 03:41:08   -12.250525c  -5.33  -4.41c  +1.1,+0.0,+0.0
# iter:  35 03:41:25   -12.250523c  -5.47  -4.44c  +1.1,+0.0,+0.0
# iter:  36 03:41:41   -12.250544c  -5.62  -4.44c  +1.1,+0.0,+0.0
# iter:  37 03:41:58   -12.250561c  -5.77  -4.45c  +1.1,+0.0,+0.0
# iter:  38 03:42:14   -12.250577c  -5.92  -4.45c  +1.1,+0.0,+0.0
# iter:  39 03:42:31   -12.250678c  -6.02  -4.45c  +1.1,+0.0,+0.0
# iter:  40 03:42:48   -12.250756c  -6.19  -4.49c  +1.1,+0.0,+0.0
# iter:  41 03:43:04   -12.250740c  -6.33  -4.52c  +1.1,+0.0,+0.0
# iter:  42 03:43:21   -12.250754c  -6.41  -4.59c  +1.1,+0.0,+0.0
# iter:  43 03:43:37   -12.250747c  -6.55  -4.54c  +1.1,+0.0,+0.0
# iter:  44 03:43:54   -12.250720c  -6.72  -4.74c  +1.1,+0.0,+0.0
# iter:  45 03:44:10   -12.250679c  -6.87  -4.80c  +1.1,+0.0,+0.0
# iter:  46 03:44:27   -12.250713c  -7.00  -4.91c  +1.1,+0.0,+0.0
# iter:  47 03:44:44   -12.250751c  -6.99  -4.93c  +1.1,+0.0,+0.0
# iter:  48 03:45:00   -12.250776c  -7.20  -5.10c  +1.1,+0.0,+0.0
# iter:  49 03:45:17   -12.250802c  -7.33  -5.18c  +1.1,+0.0,+0.0
# iter:  50 03:45:33   -12.250781c  -7.50c -5.30c  +1.1,+0.0,+0.0
scf_steps: 50
energies:  # eV
  coulomb:          -8.053269
  zero:              0.066493
  xc:              -14.909912
  external:          0.000000
  kinetic:          10.681101
  spinorbit:         0.000000
  entropy:          -0.070389
  total:           -12.285976
  extrapolated:    -12.250781

dipole moment: [-3.364369, -6.076883, -0.729930]  # |e|*Ang

total magnetic moment: [1.125617, 0.000595, 0.000000]

local magnetic moments: [
  [ 1.108615, -0.000189,  0.000000],  # Ni 0
  [-0.056626,  0.000007,  0.000000],  # I  1
  [ 0.056352, -0.005651,  0.000000]]  # I  2


Fermi level: -1.197 eV

kpt = [-0.455, -0.455, 0.000], weight = 0.008:
  Band      eig [eV]   occ [0-1]
     0       -64.949       1.000
   ...
    22        -3.003       1.000
    23        -2.922       1.000
    24        -2.694       1.000
    25        -2.294       1.000
    26        -2.183       1.000
    27        -2.098       1.000
    28        -1.866       0.999
    29        -1.595       0.982
    30        -1.027       0.154
    31        -0.752       0.012
    32         2.398       0.000
    33         2.538       0.000
    34         4.251       0.000
    35         4.535       0.000
    36         4.913       0.000
    37         5.094       0.000
   ...
    39         5.586       0.000

kpt = [-0.455, -0.364, 0.000], weight = 0.008:
  Band      eig [eV]   occ [0-1]
     0       -64.949       1.000
   ...
    22        -2.941       1.000
    23        -2.895       1.000
    24        -2.713       1.000
    25        -2.408       1.000
    26        -2.127       1.000
    27        -2.104       1.000
    28        -1.763       0.997
    29        -1.533       0.967
    30        -0.982       0.105
    31        -0.719       0.008
    32         2.173       0.000
    33         2.489       0.000
    34         3.977       0.000
    35         4.463       0.000
    36         4.530       0.000
    37         4.952       0.000
   ...
    39         5.517       0.000

kpt = [-0.455, -0.273, 0.000], weight = 0.008:
  Band      eig [eV]   occ [0-1]
     0       -64.949       1.000
   ...
    22        -2.939       1.000
    23        -2.820       1.000
    24        -2.632       1.000
    25        -2.462       1.000
    26        -2.114       1.000
    27        -2.041       1.000
    28        -1.808       0.998
    29        -1.442       0.921
    30        -1.075       0.228
    31        -0.639       0.004
    32         2.266       0.000
    33         2.705       0.000
    34         3.786       0.000
    35         4.114       0.000
    36         4.356       0.000
    37         4.762       0.000
   ...
    39         5.815       0.000
(only showing first 3 out of 121 k-points)

No gap
# Writing to Band/gsq-38.gpw (mode='')

