#  __  _  _
# | _ |_)|_||  |
# |__||  | ||/\| - 24.1.0

User:   s194113@n-62-28-16
Date:   Fri Apr 26 15:38:02 2024
Arch:   x86_64
Pid:    5951
CWD:    /work3/s194113/10302/10302_NM/NiI2
Python: 3.8.5
gpaw:   /zhome/87/8/147075/venv-name/gpaw/gpaw (10808453a8)
_gpaw:  /zhome/87/8/147075/venv-name/gpaw/
        _gpaw.cpython-38-x86_64-linux-gnu.so (10808453a8)
ase:    /zhome/87/8/147075/venv-name/ase/ase (version 3.23.0b1-c36115a2db)
numpy:  /zhome/87/8/147075/venv-name/lib/python3.8/site-packages/numpy (version 1.24.4)
scipy:  /zhome/87/8/147075/venv-name/lib/python3.8/site-packages/scipy (version 1.10.1)
libxc:  4.3.4
units:  Angstrom and eV
cores: 12
OpenMP: False
OMP_NUM_THREADS: 1

---
input parameters:
  kpts: 
    density: 6.0
    gamma: True
  magmoms: [[1.28782608, 0, 0], [0.19870794, 0, 0], [0.19870794, 0, 0]]
  mixer: 
    backend: 'pulay'
    beta: 0.05
    method: 'sum'
    nmaxold: 5
    weight: 100
  mode: 
    name: 'pw'
    ecut: 600.0
    qspiral: array([0.0620155, 0.0620155, 0.       ])
  parallel: 
    kpt: None
    domain: 1
    band: 1
    order: 'kdb'
    stridebands: False
    augment_grids: False
    sl_auto: False
    sl_default: None
    sl_diagonalize: None
    sl_inverse_cholesky: None
    sl_lcao: None
    sl_lrtddft: None
    use_elpa: False
    elpasolver: '2stage'
    buffer_size: None
    gpu: False
  symmetry: 
    point_group: False
    time_reversal: False
  xc: 
    name: 'LDA'

#                        
#                        
#                        
#                        
#                        
#              I         
#                        
#        Ni              
#          I             
#                        
#                        
#                        
#                        
#                        

atoms: [  # symbols, positions [Ang] and initial magnetic moments
  [ Ni, [   0.000000,    0.000000,    7.513573], [ 1.288,  0.000,  0.000]], # 0
  [  I, [   1.984831,    1.145943,    9.027147], [ 0.199,  0.000,  0.000]], # 1
  [  I, [   0.000000,    2.291885,    6.000000], [ 0.199,  0.000,  0.000]]] # 2

cell: [  # Ang
#     x            y            z
  [   3.969662,    0.000000,    0.000000],
  [  -1.984831,    3.437828,    0.000000],
  [   0.000000,    0.000000,   15.027147]]

periodic: [True      , True      , False     ]
lengths:  [  3.969662,   3.969662,  15.027147]  # Ang
angles:   [ 90.000000,  90.000000, 120.000000]

symmetry:
  number of symmetries: 1
  rotations: [
    [[ 1,  0,  0], [ 0,  1,  0], [ 0,  0,  1]]]

bz sampling:
  number of bz points: 121
  number of ibz points: 121
  monkhorst-pack size: [11, 11, 1]
  monkhorst-pack shift: [0, 0, 0]
  points and weights: [
    [[ -0.45454545,  -0.45454545,   0.00000000], 0.00826446],  # 0
    [[ -0.45454545,  -0.36363636,   0.00000000], 0.00826446],  # 1
    [[ -0.45454545,  -0.27272727,   0.00000000], 0.00826446],  # 2
    [[ -0.45454545,  -0.18181818,   0.00000000], 0.00826446],  # 3
    [[ -0.45454545,  -0.09090909,   0.00000000], 0.00826446],  # 4
    [[ -0.45454545,   0.00000000,   0.00000000], 0.00826446],  # 5
    [[ -0.45454545,   0.09090909,   0.00000000], 0.00826446],  # 6
    [[ -0.45454545,   0.18181818,   0.00000000], 0.00826446],  # 7
    [[ -0.45454545,   0.27272727,   0.00000000], 0.00826446],  # 8
    [[ -0.45454545,   0.36363636,   0.00000000], 0.00826446],  # 9
    # ...
    [[  0.45454545,   0.45454545,   0.00000000], 0.00826446]]  # 120

plane wave coefficients: 6874
cutoff: 600.0 eV

spin-components: 4  # (non-collinear spins)
bands: 40
valence electrons: 30.0
spin-degeneracy: 1
dtype: complex128

memory:
    wave functions: 1_060_928_000  # bytes  (88_410_666 per core)

parallelization:
    kpt:    12
    domain: 1
    band:   1

density:
  components: 4
  grid points: [24 24 90]
  charge: 0.0  # |e|

potential:
  grid points: [24 24 90]

species:
  Ni:
    name: Nickel
    id: 1802175e8de9ea26d9f4394ec1a7d564
    Z: 28.0
    valence: 16
    core: 12
    charge: 0.0
    file: /zhome/86/d/1666/PAW/gpaw-setups-0.9.20000/Ni.LDA.gz
    compensation charges: {type: gauss,
                           rc: 0.36,
                           lmax: 2}
    cutoffs: {filter: 2.14,
              core: 1.98}
    valence states:
      #              energy  rcut
      - 4s(2.00)    -5.858   1.164
      - 3p(6.00)   -71.266   1.207
      - 4p(0.00)    -1.338   1.207
      - 3d(8.00)    -9.141   1.138
      -  s          21.353   1.164
      -  d          18.071   1.138
  
    # Using partial waves for Ni as LCAO basis

  I:
    name: Iodine
    id: b559721c0c096a7b4c8fc0e0f4de5cf4
    Z: 53.0
    valence: 7
    core: 46
    charge: 0.0
    file: /zhome/86/d/1666/PAW/gpaw-setups-0.9.20000/I.LDA.gz
    compensation charges: {type: gauss,
                           rc: 0.37,
                           lmax: 2}
    cutoffs: {filter: 2.06,
              core: 2.90}
    valence states:
      #              energy  rcut
      - 5s(2.00)   -17.626   1.164
      - 5p(5.00)    -7.241   1.164
      -  s           9.585   1.164
      -  p          19.970   1.164
      -  d           0.000   1.164
  
    # Using partial waves for I as LCAO basis

Reference energy: -428067.566327  # eV

eigensolver:
  name: 'Davidson'
  niter: 2
  converge_bands: 'occupied'
Density mixing:
  Method: sum
  Backend: pulay
  Linear mixing parameter: 0.05
  old densities: 5
  Damping of long wavelength oscillations: 100
occupation numbers:
  Fermi-Dirac:
    width: 0.1000  # eV
  

poisson solver:
  ecut: 4800.0  # eV

xc functional:
  name: None

convergence criteria:
- Maximum [total energy] change in last 3 cyles: 0.0005 eV / valence electron
- Maximum integral of absolute [dens]ity change: 0.0001 electrons / valence electron
- Maximum integral of absolute [eigenst]ate change: 4e-08 eV^2 / valence electron
maximum number of iterations: 333

#      iter     time        total  log10-change:
#                          energy   eigst   dens
# iter:   1 15:38:28   -13.838202                  +1.7,+0.0,+0.0
# iter:   2 15:38:45   -12.664098   -0.50  -1.32   +1.5,-0.0,-0.0
# iter:   3 15:39:01   -12.244231   -0.75  -1.46   +1.5,-0.0,-0.0
# iter:   4 15:39:18   -12.304171   -1.43  -1.68   +1.6,-0.0,-0.0
# iter:   5 15:39:34   -12.494221   -1.58  -1.66   +1.6,+0.0,+0.0
# iter:   6 15:39:51   -12.314878   -1.80  -1.80   +1.7,+0.0,+0.0
# iter:   7 15:40:07   -12.305585   -2.19  -2.20   +1.7,+0.0,+0.0
# iter:   8 15:40:24   -12.302347c  -2.46  -2.34   +1.7,+0.0,+0.0
# iter:   9 15:40:40   -12.300679c  -2.57  -2.53   +1.7,+0.0,+0.0
# iter:  10 15:40:56   -12.301777c  -2.91  -3.03   +1.7,+0.0,+0.0
# iter:  11 15:41:13   -12.303960c  -3.11  -3.00   +1.7,+0.0,+0.0
# iter:  12 15:41:29   -12.302605c  -3.29  -2.87   +1.7,+0.0,+0.0
# iter:  13 15:41:45   -12.302370c  -3.49  -3.17   +1.7,+0.0,+0.0
# iter:  14 15:42:01   -12.302384c  -3.68  -3.32   +1.7,+0.0,+0.0
# iter:  15 15:42:18   -12.301953c  -3.81  -3.32   +1.7,+0.0,+0.0
# iter:  16 15:42:34   -12.301881c  -3.99  -3.67   +1.7,+0.0,+0.0
# iter:  17 15:42:50   -12.302014c  -4.18  -3.84   +1.7,+0.0,+0.0
# iter:  18 15:43:07   -12.302050c  -4.31  -3.95   +1.7,+0.0,+0.0
# iter:  19 15:43:23   -12.302516c  -4.50  -3.72   +1.8,+0.0,+0.0
# iter:  20 15:43:39   -12.302757c  -4.67  -3.92   +1.8,+0.0,+0.0
# iter:  21 15:43:56   -12.302764c  -4.87  -4.25c  +1.8,+0.0,+0.0
# iter:  22 15:44:12   -12.302936c  -5.02  -4.14c  +1.8,+0.0,+0.0
# iter:  23 15:44:28   -12.302921c  -5.19  -4.40c  +1.8,+0.0,+0.0
# iter:  24 15:44:45   -12.302892c  -5.36  -4.70c  +1.8,+0.0,+0.0
# iter:  25 15:45:01   -12.302917c  -5.52  -4.67c  +1.8,+0.0,-0.0
# iter:  26 15:45:17   -12.302931c  -5.63  -4.56c  +1.8,+0.0,+0.0
# iter:  27 15:45:33   -12.302950c  -5.83  -4.87c  +1.8,+0.0,+0.0
# iter:  28 15:45:50   -12.302975c  -5.98  -4.93c  +1.8,+0.0,+0.0
# iter:  29 15:46:06   -12.302975c  -6.14  -5.09c  +1.8,+0.0,-0.0
# iter:  30 15:46:22   -12.302975c  -6.31  -5.13c  +1.8,+0.0,-0.0
# iter:  31 15:46:39   -12.302999c  -6.45  -5.15c  +1.8,+0.0,-0.0
# iter:  32 15:46:55   -12.302994c  -6.62  -5.35c  +1.8,+0.0,+0.0
# iter:  33 15:47:11   -12.302992c  -6.77  -5.52c  +1.8,+0.0,-0.0
# iter:  34 15:47:28   -12.302995c  -6.92  -5.51c  +1.8,+0.0,-0.0
# iter:  35 15:47:44   -12.302985c  -7.08  -5.58c  +1.8,+0.0,-0.0
# iter:  36 15:48:01   -12.302986c  -7.24  -5.78c  +1.8,+0.0,-0.0
# iter:  37 15:48:17   -12.302986c  -7.39  -5.92c  +1.8,+0.0,-0.0
# iter:  38 15:48:33   -12.302985c  -7.55c -6.24c  +1.8,+0.0,-0.0
scf_steps: 38
energies:  # eV
  coulomb:          -7.948561
  zero:              0.066200
  xc:              -14.945761
  external:          0.000000
  kinetic:          10.548190
  spinorbit:         0.000000
  entropy:          -0.046106
  total:           -12.326038
  extrapolated:    -12.302985

dipole moment: [-4.116369, -7.129406, -5.987255]  # |e|*Ang

total magnetic moment: [1.767347, 0.011041, -0.000000]

local magnetic moments: [
  [ 1.145186, -0.004625, -0.000000],  # Ni 0
  [ 0.160696, -0.066750, -0.000000],  # I  1
  [ 0.160696, -0.066750,  0.000000]]  # I  2


Fermi level: -1.184 eV

kpt = [-0.455, -0.455, 0.000], weight = 0.008:
  Band      eig [eV]   occ [0-1]
     0       -64.973       1.000
   ...
    22        -3.136       1.000
    23        -2.993       1.000
    24        -2.912       1.000
    25        -2.293       1.000
    26        -2.156       1.000
    27        -2.130       1.000
    28        -1.623       0.988
    29        -1.621       0.988
    30        -0.681       0.007
    31        -0.667       0.006
    32         1.585       0.000
    33         2.195       0.000
    34         3.663       0.000
    35         4.538       0.000
    36         4.565       0.000
    37         4.661       0.000
   ...
    39         5.089       0.000

kpt = [-0.455, -0.364, 0.000], weight = 0.008:
  Band      eig [eV]   occ [0-1]
     0       -64.973       1.000
   ...
    22        -3.066       1.000
    23        -2.944       1.000
    24        -2.806       1.000
    25        -2.262       1.000
    26        -2.142       1.000
    27        -2.064       1.000
    28        -1.857       0.999
    29        -1.654       0.991
    30        -0.890       0.051
    31        -0.716       0.009
    32         2.006       0.000
    33         2.581       0.000
    34         4.268       0.000
    35         4.527       0.000
    36         4.734       0.000
    37         4.923       0.000
   ...
    39         5.433       0.000

kpt = [-0.455, -0.273, 0.000], weight = 0.008:
  Band      eig [eV]   occ [0-1]
     0       -64.973       1.000
   ...
    22        -3.044       1.000
    23        -2.917       1.000
    24        -2.739       1.000
    25        -2.257       1.000
    26        -2.138       1.000
    27        -2.074       1.000
    28        -1.937       0.999
    29        -1.670       0.992
    30        -1.019       0.162
    31        -0.736       0.011
    32         2.462       0.000
    33         2.666       0.000
    34         4.282       0.000
    35         4.551       0.000
    36         5.144       0.000
    37         5.247       0.000
   ...
    39         5.817       0.000
(only showing first 3 out of 121 k-points)

No gap
# Writing to Band/gsq-92.gpw (mode='')

---

timing:  # [seconds]
  Total: 631.932  # ━━━━━━━━━━━━━━━━━━━━━━━━━━━━━━━━━━━━━━━━━━━━━━━━━━━━━━━━━
  Init:   10.724  # ━
  SCF:   620.716  # ━━━━━━━━━━━━━━━━━━━━━━━━━━━━━━━━━━━━━━━━━━━━━━━━━━━━━━━━

Max RSS: 2959.348  # MiB
