#  __  _  _
# | _ |_)|_||  |
# |__||  | ||/\| - 24.1.0

User:   s194113@n-62-28-16
Date:   Thu Apr 25 22:23:55 2024
Arch:   x86_64
Pid:    5951
CWD:    /work3/s194113/10302/10302_NM/NiI2
Python: 3.8.5
gpaw:   /zhome/87/8/147075/venv-name/gpaw/gpaw (10808453a8)
_gpaw:  /zhome/87/8/147075/venv-name/gpaw/
        _gpaw.cpython-38-x86_64-linux-gnu.so (10808453a8)
ase:    /zhome/87/8/147075/venv-name/ase/ase (version 3.23.0b1-c36115a2db)
numpy:  /zhome/87/8/147075/venv-name/lib/python3.8/site-packages/numpy (version 1.24.4)
scipy:  /zhome/87/8/147075/venv-name/lib/python3.8/site-packages/scipy (version 1.10.1)
libxc:  4.3.4
units:  Angstrom and eV
cores: 12
OpenMP: False
OMP_NUM_THREADS: 1

---
input parameters:
  kpts: 
    density: 6.0
    gamma: True
  magmoms: [[1.28782608, 0, 0], [0.19870794, 0, 0], [0.19870794, 0, 0]]
  mixer: 
    backend: 'pulay'
    beta: 0.05
    method: 'sum'
    nmaxold: 5
    weight: 100
  mode: 
    name: 'pw'
    ecut: 600.0
    qspiral: array([0.19444444, 0.        , 0.        ])
  parallel: 
    kpt: None
    domain: 1
    band: 1
    order: 'kdb'
    stridebands: False
    augment_grids: False
    sl_auto: False
    sl_default: None
    sl_diagonalize: None
    sl_inverse_cholesky: None
    sl_lcao: None
    sl_lrtddft: None
    use_elpa: False
    elpasolver: '2stage'
    buffer_size: None
    gpu: False
  symmetry: 
    point_group: False
    time_reversal: False
  xc: 
    name: 'LDA'

#                        
#                        
#                        
#                        
#                        
#              I         
#                        
#        Ni              
#          I             
#                        
#                        
#                        
#                        
#                        

atoms: [  # symbols, positions [Ang] and initial magnetic moments
  [ Ni, [   0.000000,    0.000000,    7.513573], [ 1.288,  0.000,  0.000]], # 0
  [  I, [   1.984831,    1.145943,    9.027147], [ 0.199,  0.000,  0.000]], # 1
  [  I, [   0.000000,    2.291885,    6.000000], [ 0.199,  0.000,  0.000]]] # 2

cell: [  # Ang
#     x            y            z
  [   3.969662,    0.000000,    0.000000],
  [  -1.984831,    3.437828,    0.000000],
  [   0.000000,    0.000000,   15.027147]]

periodic: [True      , True      , False     ]
lengths:  [  3.969662,   3.969662,  15.027147]  # Ang
angles:   [ 90.000000,  90.000000, 120.000000]

symmetry:
  number of symmetries: 1
  rotations: [
    [[ 1,  0,  0], [ 0,  1,  0], [ 0,  0,  1]]]

bz sampling:
  number of bz points: 121
  number of ibz points: 121
  monkhorst-pack size: [11, 11, 1]
  monkhorst-pack shift: [0, 0, 0]
  points and weights: [
    [[ -0.45454545,  -0.45454545,   0.00000000], 0.00826446],  # 0
    [[ -0.45454545,  -0.36363636,   0.00000000], 0.00826446],  # 1
    [[ -0.45454545,  -0.27272727,   0.00000000], 0.00826446],  # 2
    [[ -0.45454545,  -0.18181818,   0.00000000], 0.00826446],  # 3
    [[ -0.45454545,  -0.09090909,   0.00000000], 0.00826446],  # 4
    [[ -0.45454545,   0.00000000,   0.00000000], 0.00826446],  # 5
    [[ -0.45454545,   0.09090909,   0.00000000], 0.00826446],  # 6
    [[ -0.45454545,   0.18181818,   0.00000000], 0.00826446],  # 7
    [[ -0.45454545,   0.27272727,   0.00000000], 0.00826446],  # 8
    [[ -0.45454545,   0.36363636,   0.00000000], 0.00826446],  # 9
    # ...
    [[  0.45454545,   0.45454545,   0.00000000], 0.00826446]]  # 120

plane wave coefficients: 6874
cutoff: 600.0 eV

spin-components: 4  # (non-collinear spins)
bands: 40
valence electrons: 30.0
spin-degeneracy: 1
dtype: complex128

memory:
    wave functions: 1_060_928_000  # bytes  (88_410_666 per core)

parallelization:
    kpt:    12
    domain: 1
    band:   1

density:
  components: 4
  grid points: [24 24 90]
  charge: 0.0  # |e|

potential:
  grid points: [24 24 90]

species:
  Ni:
    name: Nickel
    id: 1802175e8de9ea26d9f4394ec1a7d564
    Z: 28.0
    valence: 16
    core: 12
    charge: 0.0
    file: /zhome/86/d/1666/PAW/gpaw-setups-0.9.20000/Ni.LDA.gz
    compensation charges: {type: gauss,
                           rc: 0.36,
                           lmax: 2}
    cutoffs: {filter: 2.14,
              core: 1.98}
    valence states:
      #              energy  rcut
      - 4s(2.00)    -5.858   1.164
      - 3p(6.00)   -71.266   1.207
      - 4p(0.00)    -1.338   1.207
      - 3d(8.00)    -9.141   1.138
      -  s          21.353   1.164
      -  d          18.071   1.138
  
    # Using partial waves for Ni as LCAO basis

  I:
    name: Iodine
    id: b559721c0c096a7b4c8fc0e0f4de5cf4
    Z: 53.0
    valence: 7
    core: 46
    charge: 0.0
    file: /zhome/86/d/1666/PAW/gpaw-setups-0.9.20000/I.LDA.gz
    compensation charges: {type: gauss,
                           rc: 0.37,
                           lmax: 2}
    cutoffs: {filter: 2.06,
              core: 2.90}
    valence states:
      #              energy  rcut
      - 5s(2.00)   -17.626   1.164
      - 5p(5.00)    -7.241   1.164
      -  s           9.585   1.164
      -  p          19.970   1.164
      -  d           0.000   1.164
  
    # Using partial waves for I as LCAO basis

Reference energy: -428067.566327  # eV

eigensolver:
  name: 'Davidson'
  niter: 2
  converge_bands: 'occupied'
Density mixing:
  Method: sum
  Backend: pulay
  Linear mixing parameter: 0.05
  old densities: 5
  Damping of long wavelength oscillations: 100
occupation numbers:
  Fermi-Dirac:
    width: 0.1000  # eV
  

poisson solver:
  ecut: 4800.0  # eV

xc functional:
  name: None

convergence criteria:
- Maximum [total energy] change in last 3 cyles: 0.0005 eV / valence electron
- Maximum integral of absolute [dens]ity change: 0.0001 electrons / valence electron
- Maximum integral of absolute [eigenst]ate change: 4e-08 eV^2 / valence electron
maximum number of iterations: 333

#      iter     time        total  log10-change:
#                          energy   eigst   dens
# iter:   1 22:24:21   -13.748535                  +1.7,+0.0,+0.0
# iter:   2 22:24:38   -12.663192   -0.31  -1.32   +1.5,-0.0,-0.0
# iter:   3 22:24:54   -12.252212   -0.69  -1.46   +1.5,-0.0,+0.0
# iter:   4 22:25:10   -12.314189   -1.38  -1.68   +1.5,-0.0,-0.0
# iter:   5 22:25:27   -12.496269   -1.54  -1.67   +1.5,+0.0,-0.0
# iter:   6 22:25:43   -12.341063   -1.79  -1.82   +1.6,+0.0,-0.0
# iter:   7 22:25:59   -12.320895   -2.08  -2.15   +1.6,+0.0,-0.0
# iter:   8 22:26:16   -12.314151   -2.33  -2.34   +1.6,+0.0,-0.0
# iter:   9 22:26:32   -12.314401c  -2.49  -2.64   +1.6,+0.0,-0.0
# iter:  10 22:26:49   -12.315797c  -2.77  -3.02   +1.6,+0.0,+0.0
# iter:  11 22:27:05   -12.315344c  -2.95  -2.94   +1.6,+0.0,+0.0
# iter:  12 22:27:21   -12.314898c  -3.13  -3.23   +1.6,+0.0,+0.0
# iter:  13 22:27:38   -12.314891c  -3.30  -3.73   +1.6,+0.0,+0.0
# iter:  14 22:27:54   -12.315051c  -3.46  -3.89   +1.6,+0.0,+0.0
# iter:  15 22:28:10   -12.315162c  -3.62  -3.98   +1.6,+0.0,-0.0
# iter:  16 22:28:27   -12.315341c  -3.77  -4.13c  +1.6,+0.0,+0.0
# iter:  17 22:28:43   -12.315447c  -3.93  -4.20c  +1.6,+0.0,+0.0
# iter:  18 22:28:59   -12.315461c  -4.08  -4.39c  +1.6,+0.0,+0.0
# iter:  19 22:29:15   -12.315478c  -4.24  -4.55c  +1.6,+0.0,+0.0
# iter:  20 22:29:32   -12.315585c  -4.38  -4.55c  +1.6,+0.0,+0.0
# iter:  21 22:29:48   -12.315588c  -4.54  -4.76c  +1.6,+0.0,+0.0
# iter:  22 22:30:05   -12.315589c  -4.69  -4.85c  +1.6,+0.0,+0.0
# iter:  23 22:30:21   -12.315591c  -4.84  -4.90c  +1.6,+0.0,+0.0
# iter:  24 22:30:37   -12.315595c  -4.99  -5.01c  +1.6,+0.0,+0.0
# iter:  25 22:30:54   -12.315603c  -5.13  -4.94c  +1.6,+0.0,+0.0
# iter:  26 22:31:10   -12.315593c  -5.28  -5.01c  +1.6,+0.0,+0.0
# iter:  27 22:31:27   -12.315617c  -5.43  -4.90c  +1.6,+0.0,+0.0
# iter:  28 22:31:43   -12.315622c  -5.58  -5.17c  +1.6,+0.0,+0.0
# iter:  29 22:31:59   -12.315621c  -5.72  -5.18c  +1.6,+0.0,+0.0
# iter:  30 22:32:15   -12.315616c  -5.87  -5.15c  +1.6,+0.0,+0.0
# iter:  31 22:32:32   -12.315611c  -6.02  -5.15c  +1.6,+0.0,+0.0
# iter:  32 22:32:48   -12.315618c  -6.17  -5.10c  +1.6,+0.0,+0.0
# iter:  33 22:33:04   -12.315619c  -6.32  -5.21c  +1.6,+0.0,+0.0
# iter:  34 22:33:21   -12.315613c  -6.46  -5.24c  +1.6,+0.0,+0.0
# iter:  35 22:33:37   -12.315625c  -6.61  -5.38c  +1.6,+0.0,+0.0
# iter:  36 22:33:53   -12.315627c  -6.76  -5.46c  +1.6,+0.0,+0.0
# iter:  37 22:34:10   -12.315639c  -6.90  -5.51c  +1.6,+0.0,+0.0
# iter:  38 22:34:26   -12.315633c  -7.06  -5.61c  +1.6,+0.0,+0.0
# iter:  39 22:34:43   -12.315640c  -7.20  -5.84c  +1.6,+0.0,+0.0
# iter:  40 22:34:59   -12.315636c  -7.35  -5.80c  +1.6,+0.0,+0.0
# iter:  41 22:35:16   -12.315636c  -7.50c -6.16c  +1.6,+0.0,+0.0
scf_steps: 41
energies:  # eV
  coulomb:          -7.727381
  zero:              0.066555
  xc:              -14.913597
  external:          0.000000
  kinetic:          10.278073
  spinorbit:         0.000000
  entropy:          -0.038571
  total:           -12.334922
  extrapolated:    -12.315636

dipole moment: [-4.004212, -6.922244, -5.029784]  # |e|*Ang

total magnetic moment: [1.647885, 0.014360, 0.000000]

local magnetic moments: [
  [ 1.135904, -0.006052,  0.000000],  # Ni 0
  [ 0.100864, -0.112941,  0.000000],  # I  1
  [ 0.140022, -0.057647,  0.000000]]  # I  2


Fermi level: -1.178 eV

kpt = [-0.455, -0.455, 0.000], weight = 0.008:
  Band      eig [eV]   occ [0-1]
     0       -64.960       1.000
   ...
    22        -3.097       1.000
    23        -2.974       1.000
    24        -2.870       1.000
    25        -2.289       1.000
    26        -2.159       1.000
    27        -2.107       1.000
    28        -1.711       0.995
    29        -1.599       0.985
    30        -0.733       0.012
    31        -0.668       0.006
    32         1.601       0.000
    33         2.401       0.000
    34         3.640       0.000
    35         4.432       0.000
    36         4.520       0.000
    37         4.840       0.000
   ...
    39         5.337       0.000

kpt = [-0.455, -0.364, 0.000], weight = 0.008:
  Band      eig [eV]   occ [0-1]
     0       -64.960       1.000
   ...
    22        -3.035       1.000
    23        -2.911       1.000
    24        -2.813       1.000
    25        -2.276       1.000
    26        -2.131       1.000
    27        -2.075       1.000
    28        -1.769       0.997
    29        -1.706       0.995
    30        -0.845       0.035
    31        -0.752       0.014
    32         1.938       0.000
    33         2.591       0.000
    34         4.012       0.000
    35         4.501       0.000
    36         4.771       0.000
    37         4.972       0.000
   ...
    39         5.701       0.000

kpt = [-0.455, -0.273, 0.000], weight = 0.008:
  Band      eig [eV]   occ [0-1]
     0       -64.960       1.000
   ...
    22        -2.982       1.000
    23        -2.911       1.000
    24        -2.723       1.000
    25        -2.271       1.000
    26        -2.136       1.000
    27        -2.044       1.000
    28        -1.892       0.999
    29        -1.704       0.995
    30        -0.997       0.141
    31        -0.771       0.017
    32         2.500       0.000
    33         2.681       0.000
    34         4.154       0.000
    35         4.761       0.000
    36         4.898       0.000
    37         4.982       0.000
   ...
    39         5.656       0.000
(only showing first 3 out of 121 k-points)

Gap: 0.190 eV
Transition (v -> c):
  (s=0, k=60, n=29, [0.00, 0.00, 0.00]) -> (s=0, k=96, n=30, [0.27, 0.27, 0.00])
# Writing to Band/gsq-14.gpw (mode='')

