#  __  _  _
# | _ |_)|_||  |
# |__||  | ||/\| - 24.1.0

User:   s194113@n-62-28-16
Date:   Fri Apr 26 13:18:43 2024
Arch:   x86_64
Pid:    5951
CWD:    /work3/s194113/10302/10302_NM/NiI2
Python: 3.8.5
gpaw:   /zhome/87/8/147075/venv-name/gpaw/gpaw (10808453a8)
_gpaw:  /zhome/87/8/147075/venv-name/gpaw/
        _gpaw.cpython-38-x86_64-linux-gnu.so (10808453a8)
ase:    /zhome/87/8/147075/venv-name/ase/ase (version 3.23.0b1-c36115a2db)
numpy:  /zhome/87/8/147075/venv-name/lib/python3.8/site-packages/numpy (version 1.24.4)
scipy:  /zhome/87/8/147075/venv-name/lib/python3.8/site-packages/scipy (version 1.10.1)
libxc:  4.3.4
units:  Angstrom and eV
cores: 12
OpenMP: False
OMP_NUM_THREADS: 1

---
input parameters:
  kpts: 
    density: 6.0
    gamma: True
  magmoms: [[1.28782608, 0, 0], [0.19870794, 0, 0], [0.19870794, 0, 0]]
  mixer: 
    backend: 'pulay'
    beta: 0.05
    method: 'sum'
    nmaxold: 5
    weight: 100
  mode: 
    name: 'pw'
    ecut: 600.0
    qspiral: array([0.15503876, 0.15503876, 0.        ])
  parallel: 
    kpt: None
    domain: 1
    band: 1
    order: 'kdb'
    stridebands: False
    augment_grids: False
    sl_auto: False
    sl_default: None
    sl_diagonalize: None
    sl_inverse_cholesky: None
    sl_lcao: None
    sl_lrtddft: None
    use_elpa: False
    elpasolver: '2stage'
    buffer_size: None
    gpu: False
  symmetry: 
    point_group: False
    time_reversal: False
  xc: 
    name: 'LDA'

#                        
#                        
#                        
#                        
#                        
#              I         
#                        
#        Ni              
#          I             
#                        
#                        
#                        
#                        
#                        

atoms: [  # symbols, positions [Ang] and initial magnetic moments
  [ Ni, [   0.000000,    0.000000,    7.513573], [ 1.288,  0.000,  0.000]], # 0
  [  I, [   1.984831,    1.145943,    9.027147], [ 0.199,  0.000,  0.000]], # 1
  [  I, [   0.000000,    2.291885,    6.000000], [ 0.199,  0.000,  0.000]]] # 2

cell: [  # Ang
#     x            y            z
  [   3.969662,    0.000000,    0.000000],
  [  -1.984831,    3.437828,    0.000000],
  [   0.000000,    0.000000,   15.027147]]

periodic: [True      , True      , False     ]
lengths:  [  3.969662,   3.969662,  15.027147]  # Ang
angles:   [ 90.000000,  90.000000, 120.000000]

symmetry:
  number of symmetries: 1
  rotations: [
    [[ 1,  0,  0], [ 0,  1,  0], [ 0,  0,  1]]]

bz sampling:
  number of bz points: 121
  number of ibz points: 121
  monkhorst-pack size: [11, 11, 1]
  monkhorst-pack shift: [0, 0, 0]
  points and weights: [
    [[ -0.45454545,  -0.45454545,   0.00000000], 0.00826446],  # 0
    [[ -0.45454545,  -0.36363636,   0.00000000], 0.00826446],  # 1
    [[ -0.45454545,  -0.27272727,   0.00000000], 0.00826446],  # 2
    [[ -0.45454545,  -0.18181818,   0.00000000], 0.00826446],  # 3
    [[ -0.45454545,  -0.09090909,   0.00000000], 0.00826446],  # 4
    [[ -0.45454545,   0.00000000,   0.00000000], 0.00826446],  # 5
    [[ -0.45454545,   0.09090909,   0.00000000], 0.00826446],  # 6
    [[ -0.45454545,   0.18181818,   0.00000000], 0.00826446],  # 7
    [[ -0.45454545,   0.27272727,   0.00000000], 0.00826446],  # 8
    [[ -0.45454545,   0.36363636,   0.00000000], 0.00826446],  # 9
    # ...
    [[  0.45454545,   0.45454545,   0.00000000], 0.00826446]]  # 120

plane wave coefficients: 6874
cutoff: 600.0 eV

spin-components: 4  # (non-collinear spins)
bands: 40
valence electrons: 30.0
spin-degeneracy: 1
dtype: complex128

memory:
    wave functions: 1_060_928_000  # bytes  (88_410_666 per core)

parallelization:
    kpt:    12
    domain: 1
    band:   1

density:
  components: 4
  grid points: [24 24 90]
  charge: 0.0  # |e|

potential:
  grid points: [24 24 90]

species:
  Ni:
    name: Nickel
    id: 1802175e8de9ea26d9f4394ec1a7d564
    Z: 28.0
    valence: 16
    core: 12
    charge: 0.0
    file: /zhome/86/d/1666/PAW/gpaw-setups-0.9.20000/Ni.LDA.gz
    compensation charges: {type: gauss,
                           rc: 0.36,
                           lmax: 2}
    cutoffs: {filter: 2.14,
              core: 1.98}
    valence states:
      #              energy  rcut
      - 4s(2.00)    -5.858   1.164
      - 3p(6.00)   -71.266   1.207
      - 4p(0.00)    -1.338   1.207
      - 3d(8.00)    -9.141   1.138
      -  s          21.353   1.164
      -  d          18.071   1.138
  
    # Using partial waves for Ni as LCAO basis

  I:
    name: Iodine
    id: b559721c0c096a7b4c8fc0e0f4de5cf4
    Z: 53.0
    valence: 7
    core: 46
    charge: 0.0
    file: /zhome/86/d/1666/PAW/gpaw-setups-0.9.20000/I.LDA.gz
    compensation charges: {type: gauss,
                           rc: 0.37,
                           lmax: 2}
    cutoffs: {filter: 2.06,
              core: 2.90}
    valence states:
      #              energy  rcut
      - 5s(2.00)   -17.626   1.164
      - 5p(5.00)    -7.241   1.164
      -  s           9.585   1.164
      -  p          19.970   1.164
      -  d           0.000   1.164
  
    # Using partial waves for I as LCAO basis

Reference energy: -428067.566327  # eV

eigensolver:
  name: 'Davidson'
  niter: 2
  converge_bands: 'occupied'
Density mixing:
  Method: sum
  Backend: pulay
  Linear mixing parameter: 0.05
  old densities: 5
  Damping of long wavelength oscillations: 100
occupation numbers:
  Fermi-Dirac:
    width: 0.1000  # eV
  

poisson solver:
  ecut: 4800.0  # eV

xc functional:
  name: None

convergence criteria:
- Maximum [total energy] change in last 3 cyles: 0.0005 eV / valence electron
- Maximum integral of absolute [dens]ity change: 0.0001 electrons / valence electron
- Maximum integral of absolute [eigenst]ate change: 4e-08 eV^2 / valence electron
maximum number of iterations: 333

#      iter     time        total  log10-change:
#                          energy   eigst   dens
# iter:   1 13:19:09   -13.619844                  +1.7,+0.0,+0.0
# iter:   2 13:19:26   -12.641124   -0.13  -1.31   +1.4,-0.0,-0.0
# iter:   3 13:19:43   -12.248744   -0.60  -1.46   +1.4,-0.0,+0.0
# iter:   4 13:20:00   -12.322536   -1.25  -1.68   +1.4,-0.0,+0.0
# iter:   5 13:20:16   -12.502464   -1.43  -1.66   +1.4,+0.0,+0.0
# iter:   6 13:20:33   -12.336961   -1.66  -1.81   +1.5,+0.0,+0.0
# iter:   7 13:20:49   -12.323822   -1.95  -2.17   +1.5,+0.0,+0.0
# iter:   8 13:21:06   -12.313513   -2.14  -2.33   +1.5,+0.0,+0.0
# iter:   9 13:21:22   -12.315026c  -2.34  -2.78   +1.5,+0.0,+0.0
# iter:  10 13:21:39   -12.316190c  -2.56  -3.00   +1.5,+0.0,+0.0
# iter:  11 13:21:55   -12.314878c  -2.67  -2.92   +1.5,+0.0,+0.0
# iter:  12 13:22:12   -12.315224c  -2.90  -3.14   +1.5,+0.0,+0.0
# iter:  13 13:22:28   -12.315378c  -3.05  -3.69   +1.5,+0.0,+0.0
# iter:  14 13:22:45   -12.315419c  -3.20  -3.91   +1.5,+0.0,+0.0
# iter:  15 13:23:02   -12.315671c  -3.34  -3.94   +1.5,+0.0,-0.0
# iter:  16 13:23:18   -12.315798c  -3.48  -4.15c  +1.5,+0.0,+0.0
# iter:  17 13:23:35   -12.315925c  -3.62  -4.24c  +1.5,+0.0,+0.0
# iter:  18 13:23:51   -12.315847c  -3.76  -4.03c  +1.5,+0.0,+0.0
# iter:  19 13:24:08   -12.315885c  -3.90  -4.24c  +1.5,+0.0,-0.0
# iter:  20 13:24:24   -12.315916c  -4.04  -4.28c  +1.5,+0.0,-0.0
# iter:  21 13:24:41   -12.315908c  -4.18  -4.32c  +1.5,+0.0,-0.0
# iter:  22 13:24:57   -12.315933c  -4.32  -4.34c  +1.5,+0.0,-0.0
# iter:  23 13:25:14   -12.316108c  -4.45  -4.37c  +1.5,+0.0,-0.0
# iter:  24 13:25:30   -12.316095c  -4.59  -4.83c  +1.5,+0.0,-0.0
# iter:  25 13:25:46   -12.316073c  -4.72  -5.04c  +1.5,+0.0,-0.0
# iter:  26 13:26:03   -12.316055c  -4.86  -5.12c  +1.5,+0.0,-0.0
# iter:  27 13:26:19   -12.316056c  -5.00  -4.99c  +1.5,+0.0,-0.0
# iter:  28 13:26:36   -12.316053c  -5.13  -4.97c  +1.5,+0.0,-0.0
# iter:  29 13:26:52   -12.316057c  -5.27  -5.38c  +1.5,+0.0,-0.0
# iter:  30 13:27:09   -12.316066c  -5.41  -5.44c  +1.5,+0.0,-0.0
# iter:  31 13:27:25   -12.316064c  -5.53  -5.53c  +1.5,+0.0,-0.0
# iter:  32 13:27:41   -12.316062c  -5.67  -5.52c  +1.5,+0.0,-0.0
# iter:  33 13:27:58   -12.316063c  -5.81  -5.61c  +1.5,+0.0,-0.0
# iter:  34 13:28:14   -12.316057c  -5.94  -5.54c  +1.5,+0.0,-0.0
# iter:  35 13:28:31   -12.316057c  -6.08  -6.24c  +1.5,+0.0,-0.0
# iter:  36 13:28:47   -12.316056c  -6.21  -6.36c  +1.5,+0.0,-0.0
# iter:  37 13:29:03   -12.316056c  -6.35  -6.41c  +1.5,+0.0,-0.0
# iter:  38 13:29:20   -12.316057c  -6.50  -6.33c  +1.5,+0.0,-0.0
# iter:  39 13:29:36   -12.316056c  -6.64  -6.40c  +1.5,+0.0,-0.0
# iter:  40 13:29:53   -12.316056c  -6.77  -6.38c  +1.5,+0.0,-0.0
# iter:  41 13:30:09   -12.316056c  -6.91  -6.37c  +1.5,+0.0,-0.0
# iter:  42 13:30:25   -12.316056c  -7.05  -6.37c  +1.5,+0.0,-0.0
# iter:  43 13:30:42   -12.316055c  -7.18  -6.33c  +1.5,+0.0,-0.0
# iter:  44 13:30:58   -12.316054c  -7.32  -6.39c  +1.5,+0.0,-0.0
# iter:  45 13:31:14   -12.316055c  -7.46c -6.42c  +1.5,+0.0,-0.0
scf_steps: 45
energies:  # eV
  coulomb:          -7.649277
  zero:              0.066665
  xc:              -14.896137
  external:          0.000000
  kinetic:          10.180873
  spinorbit:         0.000000
  entropy:          -0.036357
  total:           -12.334233
  extrapolated:    -12.316055

dipole moment: [-3.875767, -6.712284, -4.104630]  # |e|*Ang

total magnetic moment: [1.526064, 0.018330, -0.000000]

local magnetic moments: [
  [ 1.129386, -0.007412, -0.000000],  # Ni 0
  [ 0.070021, -0.104517, -0.000000],  # I  1
  [ 0.069984, -0.104541, -0.000000]]  # I  2


Fermi level: -1.184 eV

kpt = [-0.455, -0.455, 0.000], weight = 0.008:
  Band      eig [eV]   occ [0-1]
     0       -64.954       1.000
   ...
    22        -3.068       1.000
    23        -2.927       1.000
    24        -2.861       1.000
    25        -2.299       1.000
    26        -2.146       1.000
    27        -2.118       1.000
    28        -1.742       0.996
    29        -1.658       0.991
    30        -0.775       0.016
    31        -0.748       0.013
    32         1.695       0.000
    33         2.540       0.000
    34         3.828       0.000
    35         4.629       0.000
    36         4.690       0.000
    37         4.759       0.000
   ...
    39         5.703       0.000

kpt = [-0.455, -0.364, 0.000], weight = 0.008:
  Band      eig [eV]   occ [0-1]
     0       -64.954       1.000
   ...
    22        -3.039       1.000
    23        -2.923       1.000
    24        -2.869       1.000
    25        -2.365       1.000
    26        -2.145       1.000
    27        -2.133       1.000
    28        -1.735       0.996
    29        -1.606       0.986
    30        -0.815       0.024
    31        -0.697       0.008
    32         1.621       0.000
    33         2.590       0.000
    34         3.671       0.000
    35         4.452       0.000
    36         4.722       0.000
    37         4.825       0.000
   ...
    39         5.958       0.000

kpt = [-0.455, -0.273, 0.000], weight = 0.008:
  Band      eig [eV]   occ [0-1]
     0       -64.954       1.000
   ...
    22        -2.971       1.000
    23        -2.915       1.000
    24        -2.780       1.000
    25        -2.375       1.000
    26        -2.145       1.000
    27        -2.128       1.000
    28        -1.748       0.996
    29        -1.575       0.980
    30        -0.908       0.060
    31        -0.733       0.011
    32         2.096       0.000
    33         2.407       0.000
    34         4.217       0.000
    35         4.638       0.000
    36         4.652       0.000
    37         4.959       0.000
   ...
    39         5.485       0.000
(only showing first 3 out of 121 k-points)

Gap: 0.335 eV
Transition (v -> c):
  (s=0, k=60, n=29, [0.00, 0.00, 0.00]) -> (s=0, k=24, n=30, [-0.27, -0.27, 0.00])
# Writing to Band/gsq-80.gpw (mode='')

