#  __  _  _
# | _ |_)|_||  |
# |__||  | ||/\| - 24.1.0

User:   s194113@n-62-28-16
Date:   Fri Apr 26 00:12:13 2024
Arch:   x86_64
Pid:    5951
CWD:    /work3/s194113/10302/10302_NM/NiI2
Python: 3.8.5
gpaw:   /zhome/87/8/147075/venv-name/gpaw/gpaw (10808453a8)
_gpaw:  /zhome/87/8/147075/venv-name/gpaw/
        _gpaw.cpython-38-x86_64-linux-gnu.so (10808453a8)
ase:    /zhome/87/8/147075/venv-name/ase/ase (version 3.23.0b1-c36115a2db)
numpy:  /zhome/87/8/147075/venv-name/lib/python3.8/site-packages/numpy (version 1.24.4)
scipy:  /zhome/87/8/147075/venv-name/lib/python3.8/site-packages/scipy (version 1.10.1)
libxc:  4.3.4
units:  Angstrom and eV
cores: 12
OpenMP: False
OMP_NUM_THREADS: 1

---
input parameters:
  kpts: 
    density: 6.0
    gamma: True
  magmoms: [[1.28782608, 0, 0], [0.19870794, 0, 0], [0.19870794, 0, 0]]
  mixer: 
    backend: 'pulay'
    beta: 0.05
    method: 'sum'
    nmaxold: 5
    weight: 100
  mode: 
    name: 'pw'
    ecut: 600.0
    qspiral: array([0.31944444, 0.        , 0.        ])
  parallel: 
    kpt: None
    domain: 1
    band: 1
    order: 'kdb'
    stridebands: False
    augment_grids: False
    sl_auto: False
    sl_default: None
    sl_diagonalize: None
    sl_inverse_cholesky: None
    sl_lcao: None
    sl_lrtddft: None
    use_elpa: False
    elpasolver: '2stage'
    buffer_size: None
    gpu: False
  symmetry: 
    point_group: False
    time_reversal: False
  xc: 
    name: 'LDA'

#                        
#                        
#                        
#                        
#                        
#              I         
#                        
#        Ni              
#          I             
#                        
#                        
#                        
#                        
#                        

atoms: [  # symbols, positions [Ang] and initial magnetic moments
  [ Ni, [   0.000000,    0.000000,    7.513573], [ 1.288,  0.000,  0.000]], # 0
  [  I, [   1.984831,    1.145943,    9.027147], [ 0.199,  0.000,  0.000]], # 1
  [  I, [   0.000000,    2.291885,    6.000000], [ 0.199,  0.000,  0.000]]] # 2

cell: [  # Ang
#     x            y            z
  [   3.969662,    0.000000,    0.000000],
  [  -1.984831,    3.437828,    0.000000],
  [   0.000000,    0.000000,   15.027147]]

periodic: [True      , True      , False     ]
lengths:  [  3.969662,   3.969662,  15.027147]  # Ang
angles:   [ 90.000000,  90.000000, 120.000000]

symmetry:
  number of symmetries: 1
  rotations: [
    [[ 1,  0,  0], [ 0,  1,  0], [ 0,  0,  1]]]

bz sampling:
  number of bz points: 121
  number of ibz points: 121
  monkhorst-pack size: [11, 11, 1]
  monkhorst-pack shift: [0, 0, 0]
  points and weights: [
    [[ -0.45454545,  -0.45454545,   0.00000000], 0.00826446],  # 0
    [[ -0.45454545,  -0.36363636,   0.00000000], 0.00826446],  # 1
    [[ -0.45454545,  -0.27272727,   0.00000000], 0.00826446],  # 2
    [[ -0.45454545,  -0.18181818,   0.00000000], 0.00826446],  # 3
    [[ -0.45454545,  -0.09090909,   0.00000000], 0.00826446],  # 4
    [[ -0.45454545,   0.00000000,   0.00000000], 0.00826446],  # 5
    [[ -0.45454545,   0.09090909,   0.00000000], 0.00826446],  # 6
    [[ -0.45454545,   0.18181818,   0.00000000], 0.00826446],  # 7
    [[ -0.45454545,   0.27272727,   0.00000000], 0.00826446],  # 8
    [[ -0.45454545,   0.36363636,   0.00000000], 0.00826446],  # 9
    # ...
    [[  0.45454545,   0.45454545,   0.00000000], 0.00826446]]  # 120

plane wave coefficients: 6874
cutoff: 600.0 eV

spin-components: 4  # (non-collinear spins)
bands: 40
valence electrons: 30.0
spin-degeneracy: 1
dtype: complex128

memory:
    wave functions: 1_060_928_000  # bytes  (88_410_666 per core)

parallelization:
    kpt:    12
    domain: 1
    band:   1

density:
  components: 4
  grid points: [24 24 90]
  charge: 0.0  # |e|

potential:
  grid points: [24 24 90]

species:
  Ni:
    name: Nickel
    id: 1802175e8de9ea26d9f4394ec1a7d564
    Z: 28.0
    valence: 16
    core: 12
    charge: 0.0
    file: /zhome/86/d/1666/PAW/gpaw-setups-0.9.20000/Ni.LDA.gz
    compensation charges: {type: gauss,
                           rc: 0.36,
                           lmax: 2}
    cutoffs: {filter: 2.14,
              core: 1.98}
    valence states:
      #              energy  rcut
      - 4s(2.00)    -5.858   1.164
      - 3p(6.00)   -71.266   1.207
      - 4p(0.00)    -1.338   1.207
      - 3d(8.00)    -9.141   1.138
      -  s          21.353   1.164
      -  d          18.071   1.138
  
    # Using partial waves for Ni as LCAO basis

  I:
    name: Iodine
    id: b559721c0c096a7b4c8fc0e0f4de5cf4
    Z: 53.0
    valence: 7
    core: 46
    charge: 0.0
    file: /zhome/86/d/1666/PAW/gpaw-setups-0.9.20000/I.LDA.gz
    compensation charges: {type: gauss,
                           rc: 0.37,
                           lmax: 2}
    cutoffs: {filter: 2.06,
              core: 2.90}
    valence states:
      #              energy  rcut
      - 5s(2.00)   -17.626   1.164
      - 5p(5.00)    -7.241   1.164
      -  s           9.585   1.164
      -  p          19.970   1.164
      -  d           0.000   1.164
  
    # Using partial waves for I as LCAO basis

Reference energy: -428067.566327  # eV

eigensolver:
  name: 'Davidson'
  niter: 2
  converge_bands: 'occupied'
Density mixing:
  Method: sum
  Backend: pulay
  Linear mixing parameter: 0.05
  old densities: 5
  Damping of long wavelength oscillations: 100
occupation numbers:
  Fermi-Dirac:
    width: 0.1000  # eV
  

poisson solver:
  ecut: 4800.0  # eV

xc functional:
  name: None

convergence criteria:
- Maximum [total energy] change in last 3 cyles: 0.0005 eV / valence electron
- Maximum integral of absolute [dens]ity change: 0.0001 electrons / valence electron
- Maximum integral of absolute [eigenst]ate change: 4e-08 eV^2 / valence electron
maximum number of iterations: 333

#      iter     time        total  log10-change:
#                          energy   eigst   dens
# iter:   1 00:12:40   -13.496637                  +1.7,+0.0,+0.0
# iter:   2 00:12:56   -12.603025   -0.02  -1.31   +1.3,-0.0,-0.0
# iter:   3 00:13:13   -12.225722   -0.53  -1.46   +1.3,-0.0,+0.0
# iter:   4 00:13:29   -12.301582   -1.15  -1.68   +1.3,-0.0,-0.0
# iter:   5 00:13:46   -12.494062   -1.33  -1.66   +1.3,+0.0,-0.0
# iter:   6 00:14:02   -12.307583   -1.54  -1.79   +1.3,+0.0,-0.0
# iter:   7 00:14:19   -12.300561   -1.82  -2.21   +1.3,+0.0,+0.0
# iter:   8 00:14:35   -12.292817c  -2.01  -2.34   +1.4,+0.0,-0.0
# iter:   9 00:14:52   -12.293712c  -2.18  -2.72   +1.4,+0.0,+0.0
# iter:  10 00:15:08   -12.294172c  -2.39  -3.03   +1.4,+0.0,+0.0
# iter:  11 00:15:24   -12.294796c  -2.50  -3.06   +1.4,+0.0,+0.0
# iter:  12 00:15:41   -12.294827c  -2.71  -2.93   +1.4,+0.0,-0.0
# iter:  13 00:15:57   -12.295130c  -2.86  -3.58   +1.4,+0.0,-0.0
# iter:  14 00:16:13   -12.295063c  -3.01  -3.75   +1.4,+0.0,-0.0
# iter:  15 00:16:30   -12.295260c  -3.16  -3.70   +1.4,+0.0,+0.0
# iter:  16 00:16:46   -12.295418c  -3.30  -4.00c  +1.4,+0.0,-0.0
# iter:  17 00:17:03   -12.295401c  -3.44  -4.00   +1.4,+0.0,-0.0
# iter:  18 00:17:19   -12.295470c  -3.58  -4.03c  +1.4,+0.0,-0.0
# iter:  19 00:17:35   -12.295498c  -3.72  -4.15c  +1.4,+0.0,-0.0
# iter:  20 00:17:52   -12.295666c  -3.84  -4.15c  +1.4,+0.0,-0.0
# iter:  21 00:18:08   -12.295979c  -3.99  -3.87   +1.4,+0.0,-0.0
# iter:  22 00:18:24   -12.295968c  -4.13  -4.66c  +1.4,+0.0,-0.0
# iter:  23 00:18:40   -12.295977c  -4.26  -4.75c  +1.4,+0.0,-0.0
# iter:  24 00:18:57   -12.296014c  -4.40  -4.79c  +1.4,+0.0,-0.0
# iter:  25 00:19:13   -12.296028c  -4.54  -4.70c  +1.4,+0.0,-0.0
# iter:  26 00:19:29   -12.296023c  -4.67  -4.80c  +1.4,+0.0,-0.0
# iter:  27 00:19:46   -12.296023c  -4.81  -4.83c  +1.4,+0.0,-0.0
# iter:  28 00:20:02   -12.296029c  -4.94  -4.88c  +1.4,+0.0,-0.0
# iter:  29 00:20:18   -12.296041c  -5.09  -4.94c  +1.4,+0.0,-0.0
# iter:  30 00:20:35   -12.296066c  -5.23  -4.96c  +1.4,+0.0,-0.0
# iter:  31 00:20:51   -12.296082c  -5.37  -5.03c  +1.4,+0.0,-0.0
# iter:  32 00:21:07   -12.296075c  -5.51  -5.09c  +1.4,+0.0,-0.0
# iter:  33 00:21:24   -12.296069c  -5.65  -5.18c  +1.4,+0.0,-0.0
# iter:  34 00:21:40   -12.296077c  -5.79  -5.33c  +1.4,+0.0,-0.0
# iter:  35 00:21:56   -12.296079c  -5.93  -5.88c  +1.4,+0.0,-0.0
# iter:  36 00:22:13   -12.296081c  -6.08  -5.99c  +1.4,+0.0,-0.0
# iter:  37 00:22:29   -12.296081c  -6.22  -6.06c  +1.4,+0.0,-0.0
# iter:  38 00:22:45   -12.296080c  -6.37  -6.16c  +1.4,+0.0,-0.0
# iter:  39 00:23:01   -12.296080c  -6.52  -6.22c  +1.4,+0.0,-0.0
# iter:  40 00:23:18   -12.296078c  -6.66  -6.40c  +1.4,+0.0,-0.0
# iter:  41 00:23:34   -12.296078c  -6.81  -6.64c  +1.4,+0.0,-0.0
# iter:  42 00:23:50   -12.296078c  -6.96  -6.75c  +1.4,+0.0,-0.0
# iter:  43 00:24:06   -12.296078c  -7.11  -6.81c  +1.4,+0.0,-0.0
# iter:  44 00:24:23   -12.296077c  -7.26  -6.89c  +1.4,+0.0,-0.0
# iter:  45 00:24:39   -12.296078c  -7.42c -7.05c  +1.4,+0.0,-0.0
scf_steps: 45
energies:  # eV
  coulomb:          -7.756701
  zero:              0.066535
  xc:              -14.897968
  external:          0.000000
  kinetic:          10.315383
  spinorbit:         0.000000
  entropy:          -0.046655
  total:           -12.319405
  extrapolated:    -12.296078

dipole moment: [-3.763079, -6.554686, -3.229829]  # |e|*Ang

total magnetic moment: [1.427084, 0.014368, -0.000000]

local magnetic moments: [
  [ 1.121617, -0.005585, -0.000000],  # Ni 0
  [ 0.008208, -0.105746, -0.000000],  # I  1
  [ 0.091845, -0.053047, -0.000000]]  # I  2


Fermi level: -1.179 eV

kpt = [-0.455, -0.455, 0.000], weight = 0.008:
  Band      eig [eV]   occ [0-1]
     0       -64.952       1.000
   ...
    22        -3.019       1.000
    23        -2.969       1.000
    24        -2.771       1.000
    25        -2.290       1.000
    26        -2.171       1.000
    27        -2.088       1.000
    28        -1.814       0.998
    29        -1.590       0.984
    30        -0.864       0.041
    31        -0.707       0.009
    32         1.823       0.000
    33         2.619       0.000
    34         3.900       0.000
    35         4.339       0.000
    36         4.466       0.000
    37         4.982       0.000
   ...
    39         5.747       0.000

kpt = [-0.455, -0.364, 0.000], weight = 0.008:
  Band      eig [eV]   occ [0-1]
     0       -64.952       1.000
   ...
    22        -3.022       1.000
    23        -2.865       1.000
    24        -2.818       1.000
    25        -2.347       1.000
    26        -2.123       1.000
    27        -2.105       1.000
    28        -1.751       0.997
    29        -1.629       0.989
    30        -0.885       0.050
    31        -0.706       0.009
    32         1.842       0.000
    33         2.591       0.000
    34         3.759       0.000
    35         4.364       0.000
    36         4.775       0.000
    37         5.001       0.000
   ...
    39         5.544       0.000

kpt = [-0.455, -0.273, 0.000], weight = 0.008:
  Band      eig [eV]   occ [0-1]
     0       -64.952       1.000
   ...
    22        -2.948       1.000
    23        -2.865       1.000
    24        -2.715       1.000
    25        -2.342       1.000
    26        -2.124       1.000
    27        -2.056       1.000
    28        -1.820       0.998
    29        -1.632       0.989
    30        -0.989       0.130
    31        -0.766       0.016
    32         2.418       0.000
    33         2.634       0.000
    34         4.102       0.000
    35         4.430       0.000
    36         4.519       0.000
    37         5.050       0.000
   ...
    39         5.468       0.000
(only showing first 3 out of 121 k-points)

Gap: 0.184 eV
Transition (v -> c):
  (s=0, k=82, n=29, [0.18, 0.00, 0.00]) -> (s=0, k=58, n=30, [0.00, -0.18, 0.00])
# Writing to Band/gsq-23.gpw (mode='')

