#  __  _  _
# | _ |_)|_||  |
# |__||  | ||/\| - 24.1.0

User:   s194113@n-62-28-16
Date:   Fri Apr 26 14:19:31 2024
Arch:   x86_64
Pid:    5951
CWD:    /work3/s194113/10302/10302_NM/NiI2
Python: 3.8.5
gpaw:   /zhome/87/8/147075/venv-name/gpaw/gpaw (10808453a8)
_gpaw:  /zhome/87/8/147075/venv-name/gpaw/
        _gpaw.cpython-38-x86_64-linux-gnu.so (10808453a8)
ase:    /zhome/87/8/147075/venv-name/ase/ase (version 3.23.0b1-c36115a2db)
numpy:  /zhome/87/8/147075/venv-name/lib/python3.8/site-packages/numpy (version 1.24.4)
scipy:  /zhome/87/8/147075/venv-name/lib/python3.8/site-packages/scipy (version 1.10.1)
libxc:  4.3.4
units:  Angstrom and eV
cores: 12
OpenMP: False
OMP_NUM_THREADS: 1

---
input parameters:
  kpts: 
    density: 6.0
    gamma: True
  magmoms: [[1.28782608, 0, 0], [0.19870794, 0, 0], [0.19870794, 0, 0]]
  mixer: 
    backend: 'pulay'
    beta: 0.05
    method: 'sum'
    nmaxold: 5
    weight: 100
  mode: 
    name: 'pw'
    ecut: 600.0
    qspiral: array([0.11627907, 0.11627907, 0.        ])
  parallel: 
    kpt: None
    domain: 1
    band: 1
    order: 'kdb'
    stridebands: False
    augment_grids: False
    sl_auto: False
    sl_default: None
    sl_diagonalize: None
    sl_inverse_cholesky: None
    sl_lcao: None
    sl_lrtddft: None
    use_elpa: False
    elpasolver: '2stage'
    buffer_size: None
    gpu: False
  symmetry: 
    point_group: False
    time_reversal: False
  xc: 
    name: 'LDA'

#                        
#                        
#                        
#                        
#                        
#              I         
#                        
#        Ni              
#          I             
#                        
#                        
#                        
#                        
#                        

atoms: [  # symbols, positions [Ang] and initial magnetic moments
  [ Ni, [   0.000000,    0.000000,    7.513573], [ 1.288,  0.000,  0.000]], # 0
  [  I, [   1.984831,    1.145943,    9.027147], [ 0.199,  0.000,  0.000]], # 1
  [  I, [   0.000000,    2.291885,    6.000000], [ 0.199,  0.000,  0.000]]] # 2

cell: [  # Ang
#     x            y            z
  [   3.969662,    0.000000,    0.000000],
  [  -1.984831,    3.437828,    0.000000],
  [   0.000000,    0.000000,   15.027147]]

periodic: [True      , True      , False     ]
lengths:  [  3.969662,   3.969662,  15.027147]  # Ang
angles:   [ 90.000000,  90.000000, 120.000000]

symmetry:
  number of symmetries: 1
  rotations: [
    [[ 1,  0,  0], [ 0,  1,  0], [ 0,  0,  1]]]

bz sampling:
  number of bz points: 121
  number of ibz points: 121
  monkhorst-pack size: [11, 11, 1]
  monkhorst-pack shift: [0, 0, 0]
  points and weights: [
    [[ -0.45454545,  -0.45454545,   0.00000000], 0.00826446],  # 0
    [[ -0.45454545,  -0.36363636,   0.00000000], 0.00826446],  # 1
    [[ -0.45454545,  -0.27272727,   0.00000000], 0.00826446],  # 2
    [[ -0.45454545,  -0.18181818,   0.00000000], 0.00826446],  # 3
    [[ -0.45454545,  -0.09090909,   0.00000000], 0.00826446],  # 4
    [[ -0.45454545,   0.00000000,   0.00000000], 0.00826446],  # 5
    [[ -0.45454545,   0.09090909,   0.00000000], 0.00826446],  # 6
    [[ -0.45454545,   0.18181818,   0.00000000], 0.00826446],  # 7
    [[ -0.45454545,   0.27272727,   0.00000000], 0.00826446],  # 8
    [[ -0.45454545,   0.36363636,   0.00000000], 0.00826446],  # 9
    # ...
    [[  0.45454545,   0.45454545,   0.00000000], 0.00826446]]  # 120

plane wave coefficients: 6874
cutoff: 600.0 eV

spin-components: 4  # (non-collinear spins)
bands: 40
valence electrons: 30.0
spin-degeneracy: 1
dtype: complex128

memory:
    wave functions: 1_060_928_000  # bytes  (88_410_666 per core)

parallelization:
    kpt:    12
    domain: 1
    band:   1

density:
  components: 4
  grid points: [24 24 90]
  charge: 0.0  # |e|

potential:
  grid points: [24 24 90]

species:
  Ni:
    name: Nickel
    id: 1802175e8de9ea26d9f4394ec1a7d564
    Z: 28.0
    valence: 16
    core: 12
    charge: 0.0
    file: /zhome/86/d/1666/PAW/gpaw-setups-0.9.20000/Ni.LDA.gz
    compensation charges: {type: gauss,
                           rc: 0.36,
                           lmax: 2}
    cutoffs: {filter: 2.14,
              core: 1.98}
    valence states:
      #              energy  rcut
      - 4s(2.00)    -5.858   1.164
      - 3p(6.00)   -71.266   1.207
      - 4p(0.00)    -1.338   1.207
      - 3d(8.00)    -9.141   1.138
      -  s          21.353   1.164
      -  d          18.071   1.138
  
    # Using partial waves for Ni as LCAO basis

  I:
    name: Iodine
    id: b559721c0c096a7b4c8fc0e0f4de5cf4
    Z: 53.0
    valence: 7
    core: 46
    charge: 0.0
    file: /zhome/86/d/1666/PAW/gpaw-setups-0.9.20000/I.LDA.gz
    compensation charges: {type: gauss,
                           rc: 0.37,
                           lmax: 2}
    cutoffs: {filter: 2.06,
              core: 2.90}
    valence states:
      #              energy  rcut
      - 5s(2.00)   -17.626   1.164
      - 5p(5.00)    -7.241   1.164
      -  s           9.585   1.164
      -  p          19.970   1.164
      -  d           0.000   1.164
  
    # Using partial waves for I as LCAO basis

Reference energy: -428067.566327  # eV

eigensolver:
  name: 'Davidson'
  niter: 2
  converge_bands: 'occupied'
Density mixing:
  Method: sum
  Backend: pulay
  Linear mixing parameter: 0.05
  old densities: 5
  Damping of long wavelength oscillations: 100
occupation numbers:
  Fermi-Dirac:
    width: 0.1000  # eV
  

poisson solver:
  ecut: 4800.0  # eV

xc functional:
  name: None

convergence criteria:
- Maximum [total energy] change in last 3 cyles: 0.0005 eV / valence electron
- Maximum integral of absolute [dens]ity change: 0.0001 electrons / valence electron
- Maximum integral of absolute [eigenst]ate change: 4e-08 eV^2 / valence electron
maximum number of iterations: 333

#      iter     time        total  log10-change:
#                          energy   eigst   dens
# iter:   1 14:19:58   -13.738781                  +1.7,+0.0,+0.0
# iter:   2 14:20:14   -12.663246   -0.29  -1.32   +1.5,-0.0,+0.0
# iter:   3 14:20:31   -12.254254   -0.67  -1.46   +1.5,-0.0,-0.0
# iter:   4 14:20:48   -12.325557   -1.37  -1.68   +1.5,-0.0,+0.0
# iter:   5 14:21:05   -12.499389   -1.54  -1.66   +1.5,+0.0,-0.0
# iter:   6 14:21:21   -12.338913   -1.77  -1.82   +1.6,+0.0,-0.0
# iter:   7 14:21:38   -12.322524   -2.08  -2.17   +1.6,+0.0,-0.0
# iter:   8 14:21:54   -12.315757   -2.32  -2.34   +1.6,+0.0,-0.0
# iter:   9 14:22:11   -12.315824c  -2.49  -2.65   +1.6,+0.0,+0.0
# iter:  10 14:22:27   -12.317364c  -2.76  -3.02   +1.6,+0.0,-0.0
# iter:  11 14:22:44   -12.318188c  -2.95  -2.93   +1.6,+0.0,+0.0
# iter:  12 14:23:01   -12.316490c  -3.09  -2.91   +1.6,+0.0,-0.0
# iter:  13 14:23:17   -12.316454c  -3.29  -3.49   +1.6,+0.0,-0.0
# iter:  14 14:23:34   -12.316382c  -3.44  -3.65   +1.6,+0.0,+0.0
# iter:  15 14:23:50   -12.316380c  -3.60  -3.78   +1.6,+0.0,+0.0
# iter:  16 14:24:07   -12.316521c  -3.75  -3.91   +1.6,+0.0,+0.0
# iter:  17 14:24:23   -12.316663c  -3.90  -3.94   +1.6,+0.0,+0.0
# iter:  18 14:24:40   -12.316697c  -4.05  -3.93   +1.6,+0.0,-0.0
# iter:  19 14:24:56   -12.316736c  -4.20  -4.00   +1.6,+0.0,-0.0
# iter:  20 14:25:13   -12.316834c  -4.34  -4.02c  +1.6,+0.0,-0.0
# iter:  21 14:25:29   -12.316884c  -4.49  -4.10c  +1.6,+0.0,-0.0
# iter:  22 14:25:46   -12.316987c  -4.63  -4.13c  +1.6,+0.0,+0.0
# iter:  23 14:26:02   -12.317034c  -4.78  -4.22c  +1.6,+0.0,-0.0
# iter:  24 14:26:19   -12.317108c  -4.91  -4.26c  +1.6,+0.0,-0.0
# iter:  25 14:26:35   -12.317120c  -5.05  -4.38c  +1.6,+0.0,+0.0
# iter:  26 14:26:52   -12.317142c  -5.19  -4.43c  +1.6,+0.0,-0.0
# iter:  27 14:27:08   -12.317140c  -5.33  -4.62c  +1.6,+0.0,+0.0
# iter:  28 14:27:25   -12.317133c  -5.46  -4.76c  +1.6,+0.0,+0.0
# iter:  29 14:27:41   -12.317098c  -5.60  -4.77c  +1.6,+0.0,+0.0
# iter:  30 14:27:58   -12.317095c  -5.73  -4.88c  +1.6,+0.0,-0.0
# iter:  31 14:28:14   -12.317108c  -5.86  -4.99c  +1.6,+0.0,+0.0
# iter:  32 14:28:31   -12.317109c  -6.01  -5.08c  +1.6,+0.0,+0.0
# iter:  33 14:28:47   -12.317110c  -6.14  -5.48c  +1.6,+0.0,+0.0
# iter:  34 14:29:04   -12.317108c  -6.28  -5.57c  +1.6,+0.0,+0.0
# iter:  35 14:29:20   -12.317108c  -6.42  -5.71c  +1.6,+0.0,+0.0
# iter:  36 14:29:37   -12.317110c  -6.57  -5.85c  +1.6,+0.0,+0.0
# iter:  37 14:29:53   -12.317110c  -6.71  -5.89c  +1.6,+0.0,+0.0
# iter:  38 14:30:09   -12.317112c  -6.85  -5.91c  +1.6,+0.0,+0.0
# iter:  39 14:30:26   -12.317113c  -7.00  -6.03c  +1.6,+0.0,+0.0
# iter:  40 14:30:43   -12.317113c  -7.14  -6.08c  +1.6,+0.0,-0.0
# iter:  41 14:30:59   -12.317114c  -7.28  -6.11c  +1.6,+0.0,+0.0
# iter:  42 14:31:15   -12.317114c  -7.43c -6.15c  +1.6,+0.0,-0.0
scf_steps: 42
energies:  # eV
  coulomb:          -7.714070
  zero:              0.066526
  xc:              -14.911810
  external:          0.000000
  kinetic:          10.260966
  spinorbit:         0.000000
  entropy:          -0.037455
  total:           -12.335842
  extrapolated:    -12.317114

dipole moment: [-3.989755, -6.909854, -4.988166]  # |e|*Ang

total magnetic moment: [1.640270, 0.016996, -0.000000]

local magnetic moments: [
  [ 1.136050, -0.007114,  0.000000],  # Ni 0
  [ 0.110686, -0.100416,  0.000000],  # I  1
  [ 0.110669, -0.100434, -0.000000]]  # I  2


Fermi level: -1.182 eV

kpt = [-0.455, -0.455, 0.000], weight = 0.008:
  Band      eig [eV]   occ [0-1]
     0       -64.960       1.000
   ...
    22        -3.101       1.000
    23        -2.956       1.000
    24        -2.897       1.000
    25        -2.293       1.000
    26        -2.148       1.000
    27        -2.125       1.000
    28        -1.699       0.994
    29        -1.637       0.990
    30        -0.715       0.009
    31        -0.705       0.008
    32         1.584       0.000
    33         2.437       0.000
    34         3.649       0.000
    35         4.569       0.000
    36         4.644       0.000
    37         4.817       0.000
   ...
    39         5.443       0.000

kpt = [-0.455, -0.364, 0.000], weight = 0.008:
  Band      eig [eV]   occ [0-1]
     0       -64.960       1.000
   ...
    22        -3.048       1.000
    23        -2.933       1.000
    24        -2.842       1.000
    25        -2.314       1.000
    26        -2.144       1.000
    27        -2.104       1.000
    28        -1.772       0.997
    29        -1.638       0.990
    30        -0.817       0.025
    31        -0.723       0.010
    32         1.738       0.000
    33         2.607       0.000
    34         3.856       0.000
    35         4.511       0.000
    36         4.621       0.000
    37         4.852       0.000
   ...
    39         5.734       0.000

kpt = [-0.455, -0.273, 0.000], weight = 0.008:
  Band      eig [eV]   occ [0-1]
     0       -64.960       1.000
   ...
    22        -3.003       1.000
    23        -2.913       1.000
    24        -2.757       1.000
    25        -2.316       1.000
    26        -2.144       1.000
    27        -2.101       1.000
    28        -1.828       0.998
    29        -1.626       0.988
    30        -0.954       0.092
    31        -0.742       0.012
    32         2.291       0.000
    33         2.497       0.000
    34         4.333       0.000
    35         4.791       0.000
    36         4.838       0.000
    37         4.879       0.000
   ...
    39         5.660       0.000
(only showing first 3 out of 121 k-points)

Gap: 0.222 eV
Transition (v -> c):
  (s=0, k=60, n=29, [0.00, 0.00, 0.00]) -> (s=0, k=96, n=30, [0.27, 0.27, 0.00])
# Writing to Band/gsq-85.gpw (mode='')

