#  __  _  _
# | _ |_)|_||  |
# |__||  | ||/\| - 24.1.0

User:   s194113@n-62-28-16
Date:   Thu Apr 25 22:35:16 2024
Arch:   x86_64
Pid:    5951
CWD:    /work3/s194113/10302/10302_NM/NiI2
Python: 3.8.5
gpaw:   /zhome/87/8/147075/venv-name/gpaw/gpaw (10808453a8)
_gpaw:  /zhome/87/8/147075/venv-name/gpaw/
        _gpaw.cpython-38-x86_64-linux-gnu.so (10808453a8)
ase:    /zhome/87/8/147075/venv-name/ase/ase (version 3.23.0b1-c36115a2db)
numpy:  /zhome/87/8/147075/venv-name/lib/python3.8/site-packages/numpy (version 1.24.4)
scipy:  /zhome/87/8/147075/venv-name/lib/python3.8/site-packages/scipy (version 1.10.1)
libxc:  4.3.4
units:  Angstrom and eV
cores: 12
OpenMP: False
OMP_NUM_THREADS: 1

---
input parameters:
  kpts: 
    density: 6.0
    gamma: True
  magmoms: [[1.28782608, 0, 0], [0.19870794, 0, 0], [0.19870794, 0, 0]]
  mixer: 
    backend: 'pulay'
    beta: 0.05
    method: 'sum'
    nmaxold: 5
    weight: 100
  mode: 
    name: 'pw'
    ecut: 600.0
    qspiral: array([0.20833333, 0.        , 0.        ])
  parallel: 
    kpt: None
    domain: 1
    band: 1
    order: 'kdb'
    stridebands: False
    augment_grids: False
    sl_auto: False
    sl_default: None
    sl_diagonalize: None
    sl_inverse_cholesky: None
    sl_lcao: None
    sl_lrtddft: None
    use_elpa: False
    elpasolver: '2stage'
    buffer_size: None
    gpu: False
  symmetry: 
    point_group: False
    time_reversal: False
  xc: 
    name: 'LDA'

#                        
#                        
#                        
#                        
#                        
#              I         
#                        
#        Ni              
#          I             
#                        
#                        
#                        
#                        
#                        

atoms: [  # symbols, positions [Ang] and initial magnetic moments
  [ Ni, [   0.000000,    0.000000,    7.513573], [ 1.288,  0.000,  0.000]], # 0
  [  I, [   1.984831,    1.145943,    9.027147], [ 0.199,  0.000,  0.000]], # 1
  [  I, [   0.000000,    2.291885,    6.000000], [ 0.199,  0.000,  0.000]]] # 2

cell: [  # Ang
#     x            y            z
  [   3.969662,    0.000000,    0.000000],
  [  -1.984831,    3.437828,    0.000000],
  [   0.000000,    0.000000,   15.027147]]

periodic: [True      , True      , False     ]
lengths:  [  3.969662,   3.969662,  15.027147]  # Ang
angles:   [ 90.000000,  90.000000, 120.000000]

symmetry:
  number of symmetries: 1
  rotations: [
    [[ 1,  0,  0], [ 0,  1,  0], [ 0,  0,  1]]]

bz sampling:
  number of bz points: 121
  number of ibz points: 121
  monkhorst-pack size: [11, 11, 1]
  monkhorst-pack shift: [0, 0, 0]
  points and weights: [
    [[ -0.45454545,  -0.45454545,   0.00000000], 0.00826446],  # 0
    [[ -0.45454545,  -0.36363636,   0.00000000], 0.00826446],  # 1
    [[ -0.45454545,  -0.27272727,   0.00000000], 0.00826446],  # 2
    [[ -0.45454545,  -0.18181818,   0.00000000], 0.00826446],  # 3
    [[ -0.45454545,  -0.09090909,   0.00000000], 0.00826446],  # 4
    [[ -0.45454545,   0.00000000,   0.00000000], 0.00826446],  # 5
    [[ -0.45454545,   0.09090909,   0.00000000], 0.00826446],  # 6
    [[ -0.45454545,   0.18181818,   0.00000000], 0.00826446],  # 7
    [[ -0.45454545,   0.27272727,   0.00000000], 0.00826446],  # 8
    [[ -0.45454545,   0.36363636,   0.00000000], 0.00826446],  # 9
    # ...
    [[  0.45454545,   0.45454545,   0.00000000], 0.00826446]]  # 120

plane wave coefficients: 6874
cutoff: 600.0 eV

spin-components: 4  # (non-collinear spins)
bands: 40
valence electrons: 30.0
spin-degeneracy: 1
dtype: complex128

memory:
    wave functions: 1_060_928_000  # bytes  (88_410_666 per core)

parallelization:
    kpt:    12
    domain: 1
    band:   1

density:
  components: 4
  grid points: [24 24 90]
  charge: 0.0  # |e|

potential:
  grid points: [24 24 90]

species:
  Ni:
    name: Nickel
    id: 1802175e8de9ea26d9f4394ec1a7d564
    Z: 28.0
    valence: 16
    core: 12
    charge: 0.0
    file: /zhome/86/d/1666/PAW/gpaw-setups-0.9.20000/Ni.LDA.gz
    compensation charges: {type: gauss,
                           rc: 0.36,
                           lmax: 2}
    cutoffs: {filter: 2.14,
              core: 1.98}
    valence states:
      #              energy  rcut
      - 4s(2.00)    -5.858   1.164
      - 3p(6.00)   -71.266   1.207
      - 4p(0.00)    -1.338   1.207
      - 3d(8.00)    -9.141   1.138
      -  s          21.353   1.164
      -  d          18.071   1.138
  
    # Using partial waves for Ni as LCAO basis

  I:
    name: Iodine
    id: b559721c0c096a7b4c8fc0e0f4de5cf4
    Z: 53.0
    valence: 7
    core: 46
    charge: 0.0
    file: /zhome/86/d/1666/PAW/gpaw-setups-0.9.20000/I.LDA.gz
    compensation charges: {type: gauss,
                           rc: 0.37,
                           lmax: 2}
    cutoffs: {filter: 2.06,
              core: 2.90}
    valence states:
      #              energy  rcut
      - 5s(2.00)   -17.626   1.164
      - 5p(5.00)    -7.241   1.164
      -  s           9.585   1.164
      -  p          19.970   1.164
      -  d           0.000   1.164
  
    # Using partial waves for I as LCAO basis

Reference energy: -428067.566327  # eV

eigensolver:
  name: 'Davidson'
  niter: 2
  converge_bands: 'occupied'
Density mixing:
  Method: sum
  Backend: pulay
  Linear mixing parameter: 0.05
  old densities: 5
  Damping of long wavelength oscillations: 100
occupation numbers:
  Fermi-Dirac:
    width: 0.1000  # eV
  

poisson solver:
  ecut: 4800.0  # eV

xc functional:
  name: None

convergence criteria:
- Maximum [total energy] change in last 3 cyles: 0.0005 eV / valence electron
- Maximum integral of absolute [dens]ity change: 0.0001 electrons / valence electron
- Maximum integral of absolute [eigenst]ate change: 4e-08 eV^2 / valence electron
maximum number of iterations: 333

#      iter     time        total  log10-change:
#                          energy   eigst   dens
# iter:   1 22:35:42   -13.728152                  +1.7,+0.0,+0.0
# iter:   2 22:35:59   -12.660832   -0.28  -1.32   +1.4,-0.0,+0.0
# iter:   3 22:36:16   -12.252080   -0.67  -1.46   +1.5,-0.0,-0.0
# iter:   4 22:36:33   -12.317965   -1.36  -1.68   +1.5,-0.0,+0.0
# iter:   5 22:36:49   -12.492458   -1.52  -1.67   +1.5,+0.0,-0.0
# iter:   6 22:37:06   -12.340480   -1.77  -1.82   +1.6,+0.0,-0.0
# iter:   7 22:37:23   -12.320977   -2.05  -2.16   +1.6,+0.0,+0.0
# iter:   8 22:37:40   -12.314618   -2.29  -2.34   +1.6,+0.0,+0.0
# iter:   9 22:37:56   -12.314664c  -2.45  -2.64   +1.6,+0.0,+0.0
# iter:  10 22:38:13   -12.315930c  -2.72  -3.02   +1.6,+0.0,-0.0
# iter:  11 22:38:30   -12.315627c  -2.90  -2.96   +1.6,+0.0,-0.0
# iter:  12 22:38:46   -12.315224c  -3.08  -3.23   +1.6,+0.0,+0.0
# iter:  13 22:39:03   -12.315215c  -3.25  -3.73   +1.6,+0.0,+0.0
# iter:  14 22:39:20   -12.315359c  -3.40  -3.90   +1.6,+0.0,+0.0
# iter:  15 22:39:36   -12.315459c  -3.56  -3.98   +1.6,+0.0,+0.0
# iter:  16 22:39:53   -12.315625c  -3.72  -4.12c  +1.6,+0.0,+0.0
# iter:  17 22:40:10   -12.315768c  -3.87  -4.15c  +1.6,+0.0,+0.0
# iter:  18 22:40:27   -12.315787c  -4.02  -4.38c  +1.6,+0.0,-0.0
# iter:  19 22:40:43   -12.315794c  -4.17  -4.55c  +1.6,+0.0,-0.0
# iter:  20 22:41:00   -12.315800c  -4.32  -4.56c  +1.6,+0.0,-0.0
# iter:  21 22:41:17   -12.315835c  -4.47  -4.56c  +1.6,+0.0,-0.0
# iter:  22 22:41:34   -12.315927c  -4.61  -4.59c  +1.6,+0.0,-0.0
# iter:  23 22:41:50   -12.315910c  -4.77  -4.62c  +1.6,+0.0,-0.0
# iter:  24 22:42:07   -12.315905c  -4.92  -4.65c  +1.6,+0.0,-0.0
# iter:  25 22:42:24   -12.315923c  -5.06  -4.80c  +1.6,+0.0,-0.0
# iter:  26 22:42:40   -12.315957c  -5.21  -4.86c  +1.6,+0.0,-0.0
# iter:  27 22:42:57   -12.315957c  -5.36  -5.09c  +1.6,+0.0,-0.0
# iter:  28 22:43:14   -12.315958c  -5.51  -5.25c  +1.6,+0.0,-0.0
# iter:  29 22:43:31   -12.315949c  -5.66  -5.36c  +1.6,+0.0,-0.0
# iter:  30 22:43:47   -12.315946c  -5.81  -5.49c  +1.6,+0.0,-0.0
# iter:  31 22:44:04   -12.315947c  -5.95  -5.61c  +1.6,+0.0,-0.0
# iter:  32 22:44:20   -12.315946c  -6.09  -5.61c  +1.6,+0.0,-0.0
# iter:  33 22:44:37   -12.315945c  -6.24  -5.63c  +1.6,+0.0,-0.0
# iter:  34 22:44:53   -12.315946c  -6.38  -5.67c  +1.6,+0.0,-0.0
# iter:  35 22:45:10   -12.315947c  -6.53  -5.69c  +1.6,+0.0,-0.0
# iter:  36 22:45:27   -12.315948c  -6.67  -5.69c  +1.6,+0.0,-0.0
# iter:  37 22:45:43   -12.315949c  -6.82  -5.73c  +1.6,+0.0,-0.0
# iter:  38 22:46:00   -12.315950c  -6.97  -5.87c  +1.6,+0.0,-0.0
# iter:  39 22:46:17   -12.315951c  -7.12  -5.95c  +1.6,+0.0,-0.0
# iter:  40 22:46:33   -12.315950c  -7.27  -6.17c  +1.6,+0.0,-0.0
# iter:  41 22:46:50   -12.315951c  -7.41c -6.19c  +1.6,+0.0,-0.0
scf_steps: 41
energies:  # eV
  coulomb:          -7.702105
  zero:              0.066547
  xc:              -14.909027
  external:          0.000000
  kinetic:          10.247784
  spinorbit:         0.000000
  entropy:          -0.038298
  total:           -12.335100
  extrapolated:    -12.315951

dipole moment: [-3.980407, -6.883419, -4.843954]  # |e|*Ang

total magnetic moment: [1.624510, 0.014785, -0.000000]

local magnetic moments: [
  [ 1.133807, -0.006202, -0.000000],  # Ni 0
  [ 0.090460, -0.115707, -0.000000],  # I  1
  [ 0.134541, -0.058906, -0.000000]]  # I  2


Fermi level: -1.176 eV

kpt = [-0.455, -0.455, 0.000], weight = 0.008:
  Band      eig [eV]   occ [0-1]
     0       -64.958       1.000
   ...
    22        -3.088       1.000
    23        -2.972       1.000
    24        -2.860       1.000
    25        -2.288       1.000
    26        -2.159       1.000
    27        -2.104       1.000
    28        -1.724       0.996
    29        -1.598       0.985
    30        -0.744       0.013
    31        -0.671       0.006
    32         1.612       0.000
    33         2.434       0.000
    34         3.651       0.000
    35         4.426       0.000
    36         4.500       0.000
    37         4.858       0.000
   ...
    39         5.405       0.000

kpt = [-0.455, -0.364, 0.000], weight = 0.008:
  Band      eig [eV]   occ [0-1]
     0       -64.958       1.000
   ...
    22        -3.033       1.000
    23        -2.904       1.000
    24        -2.816       1.000
    25        -2.282       1.000
    26        -2.130       1.000
    27        -2.078       1.000
    28        -1.753       0.997
    29        -1.712       0.995
    30        -0.840       0.033
    31        -0.754       0.014
    32         1.917       0.000
    33         2.594       0.000
    34         3.970       0.000
    35         4.476       0.000
    36         4.774       0.000
    37         4.983       0.000
   ...
    39         5.669       0.000

kpt = [-0.455, -0.273, 0.000], weight = 0.008:
  Band      eig [eV]   occ [0-1]
     0       -64.958       1.000
   ...
    22        -2.975       1.000
    23        -2.908       1.000
    24        -2.722       1.000
    25        -2.276       1.000
    26        -2.135       1.000
    27        -2.045       1.000
    28        -1.879       0.999
    29        -1.703       0.995
    30        -0.992       0.137
    31        -0.775       0.018
    32         2.496       0.000
    33         2.670       0.000
    34         4.157       0.000
    35         4.734       0.000
    36         4.845       0.000
    37         5.006       0.000
   ...
    39         5.620       0.000
(only showing first 3 out of 121 k-points)

Gap: 0.200 eV
Transition (v -> c):
  (s=0, k=60, n=29, [0.00, 0.00, 0.00]) -> (s=0, k=96, n=30, [0.27, 0.27, 0.00])
# Writing to Band/gsq-15.gpw (mode='')

---

timing:  # [seconds]
  Total: 715.432  # ━━━━━━━━━━━━━━━━━━━━━━━━━━━━━━━━━━━━━━━━━━━━━━━━━━━━━━━━━
  Init:   10.823  # ━
  SCF:   683.522  # ━━━━━━━━━━━━━━━━━━━━━━━━━━━━━━━━━━━━━━━━━━━━━━━━━━━━━━╸

Max RSS: 860.785  # MiB
