#  __  _  _
# | _ |_)|_||  |
# |__||  | ||/\| - 24.1.0

User:   s194113@n-62-28-16
Date:   Fri Apr 26 11:33:28 2024
Arch:   x86_64
Pid:    5951
CWD:    /work3/s194113/10302/10302_NM/NiI2
Python: 3.8.5
gpaw:   /zhome/87/8/147075/venv-name/gpaw/gpaw (10808453a8)
_gpaw:  /zhome/87/8/147075/venv-name/gpaw/
        _gpaw.cpython-38-x86_64-linux-gnu.so (10808453a8)
ase:    /zhome/87/8/147075/venv-name/ase/ase (version 3.23.0b1-c36115a2db)
numpy:  /zhome/87/8/147075/venv-name/lib/python3.8/site-packages/numpy (version 1.24.4)
scipy:  /zhome/87/8/147075/venv-name/lib/python3.8/site-packages/scipy (version 1.10.1)
libxc:  4.3.4
units:  Angstrom and eV
cores: 12
OpenMP: False
OMP_NUM_THREADS: 1

---
input parameters:
  kpts: 
    density: 6.0
    gamma: True
  magmoms: [[1.28782608, 0, 0], [0.19870794, 0, 0], [0.19870794, 0, 0]]
  mixer: 
    backend: 'pulay'
    beta: 0.05
    method: 'sum'
    nmaxold: 5
    weight: 100
  mode: 
    name: 'pw'
    ecut: 600.0
    qspiral: array([0.21705426, 0.21705426, 0.        ])
  parallel: 
    kpt: None
    domain: 1
    band: 1
    order: 'kdb'
    stridebands: False
    augment_grids: False
    sl_auto: False
    sl_default: None
    sl_diagonalize: None
    sl_inverse_cholesky: None
    sl_lcao: None
    sl_lrtddft: None
    use_elpa: False
    elpasolver: '2stage'
    buffer_size: None
    gpu: False
  symmetry: 
    point_group: False
    time_reversal: False
  xc: 
    name: 'LDA'

#                        
#                        
#                        
#                        
#                        
#              I         
#                        
#        Ni              
#          I             
#                        
#                        
#                        
#                        
#                        

atoms: [  # symbols, positions [Ang] and initial magnetic moments
  [ Ni, [   0.000000,    0.000000,    7.513573], [ 1.288,  0.000,  0.000]], # 0
  [  I, [   1.984831,    1.145943,    9.027147], [ 0.199,  0.000,  0.000]], # 1
  [  I, [   0.000000,    2.291885,    6.000000], [ 0.199,  0.000,  0.000]]] # 2

cell: [  # Ang
#     x            y            z
  [   3.969662,    0.000000,    0.000000],
  [  -1.984831,    3.437828,    0.000000],
  [   0.000000,    0.000000,   15.027147]]

periodic: [True      , True      , False     ]
lengths:  [  3.969662,   3.969662,  15.027147]  # Ang
angles:   [ 90.000000,  90.000000, 120.000000]

symmetry:
  number of symmetries: 1
  rotations: [
    [[ 1,  0,  0], [ 0,  1,  0], [ 0,  0,  1]]]

bz sampling:
  number of bz points: 121
  number of ibz points: 121
  monkhorst-pack size: [11, 11, 1]
  monkhorst-pack shift: [0, 0, 0]
  points and weights: [
    [[ -0.45454545,  -0.45454545,   0.00000000], 0.00826446],  # 0
    [[ -0.45454545,  -0.36363636,   0.00000000], 0.00826446],  # 1
    [[ -0.45454545,  -0.27272727,   0.00000000], 0.00826446],  # 2
    [[ -0.45454545,  -0.18181818,   0.00000000], 0.00826446],  # 3
    [[ -0.45454545,  -0.09090909,   0.00000000], 0.00826446],  # 4
    [[ -0.45454545,   0.00000000,   0.00000000], 0.00826446],  # 5
    [[ -0.45454545,   0.09090909,   0.00000000], 0.00826446],  # 6
    [[ -0.45454545,   0.18181818,   0.00000000], 0.00826446],  # 7
    [[ -0.45454545,   0.27272727,   0.00000000], 0.00826446],  # 8
    [[ -0.45454545,   0.36363636,   0.00000000], 0.00826446],  # 9
    # ...
    [[  0.45454545,   0.45454545,   0.00000000], 0.00826446]]  # 120

plane wave coefficients: 6874
cutoff: 600.0 eV

spin-components: 4  # (non-collinear spins)
bands: 40
valence electrons: 30.0
spin-degeneracy: 1
dtype: complex128

memory:
    wave functions: 1_060_928_000  # bytes  (88_410_666 per core)

parallelization:
    kpt:    12
    domain: 1
    band:   1

density:
  components: 4
  grid points: [24 24 90]
  charge: 0.0  # |e|

potential:
  grid points: [24 24 90]

species:
  Ni:
    name: Nickel
    id: 1802175e8de9ea26d9f4394ec1a7d564
    Z: 28.0
    valence: 16
    core: 12
    charge: 0.0
    file: /zhome/86/d/1666/PAW/gpaw-setups-0.9.20000/Ni.LDA.gz
    compensation charges: {type: gauss,
                           rc: 0.36,
                           lmax: 2}
    cutoffs: {filter: 2.14,
              core: 1.98}
    valence states:
      #              energy  rcut
      - 4s(2.00)    -5.858   1.164
      - 3p(6.00)   -71.266   1.207
      - 4p(0.00)    -1.338   1.207
      - 3d(8.00)    -9.141   1.138
      -  s          21.353   1.164
      -  d          18.071   1.138
  
    # Using partial waves for Ni as LCAO basis

  I:
    name: Iodine
    id: b559721c0c096a7b4c8fc0e0f4de5cf4
    Z: 53.0
    valence: 7
    core: 46
    charge: 0.0
    file: /zhome/86/d/1666/PAW/gpaw-setups-0.9.20000/I.LDA.gz
    compensation charges: {type: gauss,
                           rc: 0.37,
                           lmax: 2}
    cutoffs: {filter: 2.06,
              core: 2.90}
    valence states:
      #              energy  rcut
      - 5s(2.00)   -17.626   1.164
      - 5p(5.00)    -7.241   1.164
      -  s           9.585   1.164
      -  p          19.970   1.164
      -  d           0.000   1.164
  
    # Using partial waves for I as LCAO basis

Reference energy: -428067.566327  # eV

eigensolver:
  name: 'Davidson'
  niter: 2
  converge_bands: 'occupied'
Density mixing:
  Method: sum
  Backend: pulay
  Linear mixing parameter: 0.05
  old densities: 5
  Damping of long wavelength oscillations: 100
occupation numbers:
  Fermi-Dirac:
    width: 0.1000  # eV
  

poisson solver:
  ecut: 4800.0  # eV

xc functional:
  name: None

convergence criteria:
- Maximum [total energy] change in last 3 cyles: 0.0005 eV / valence electron
- Maximum integral of absolute [dens]ity change: 0.0001 electrons / valence electron
- Maximum integral of absolute [eigenst]ate change: 4e-08 eV^2 / valence electron
maximum number of iterations: 333

#      iter     time        total  log10-change:
#                          energy   eigst   dens
# iter:   1 11:33:54   -13.342376                  +1.7,+0.0,+0.0
# iter:   2 11:34:11   -12.575136   +0.10  -1.31   +1.3,-0.0,-0.0
# iter:   3 11:34:28   -12.223425   -0.47  -1.46   +1.2,-0.0,-0.0
# iter:   4 11:34:45   -12.290377   -1.07  -1.68   +1.2,-0.0,-0.0
# iter:   5 11:35:02   -12.517095   -1.24  -1.67   +1.2,+0.0,+0.0
# iter:   6 11:35:18   -12.311734   -1.46  -1.77   +1.2,+0.0,-0.0
# iter:   7 11:35:35   -12.309438   -1.75  -2.21   +1.3,+0.0,-0.0
# iter:   8 11:35:52   -12.297595c  -1.91  -2.32   +1.3,+0.0,+0.0
# iter:   9 11:36:09   -12.299007c  -2.10  -2.76   +1.3,+0.0,+0.0
# iter:  10 11:36:25   -12.298988c  -2.29  -3.02   +1.3,+0.0,-0.0
# iter:  11 11:36:42   -12.299924c  -2.42  -3.13   +1.3,+0.0,-0.0
# iter:  12 11:36:59   -12.300074c  -2.59  -3.11   +1.3,+0.0,-0.0
# iter:  13 11:37:15   -12.300347c  -2.73  -3.72   +1.3,+0.0,+0.0
# iter:  14 11:37:32   -12.300324c  -2.87  -3.74   +1.3,+0.0,+0.0
# iter:  15 11:37:49   -12.300621c  -3.02  -3.67   +1.3,+0.0,-0.0
# iter:  16 11:38:05   -12.300859c  -3.15  -4.08c  +1.3,+0.0,+0.0
# iter:  17 11:38:22   -12.300778c  -3.29  -3.87   +1.3,+0.0,-0.0
# iter:  18 11:38:39   -12.300858c  -3.43  -4.11c  +1.3,+0.0,-0.0
# iter:  19 11:38:55   -12.300752c  -3.56  -3.97   +1.3,+0.0,-0.0
# iter:  20 11:39:12   -12.300753c  -3.69  -4.11c  +1.3,+0.0,+0.0
# iter:  21 11:39:29   -12.300852c  -3.82  -4.09c  +1.3,+0.0,+0.0
# iter:  22 11:39:45   -12.300777c  -3.95  -4.13c  +1.3,+0.0,-0.0
# iter:  23 11:40:02   -12.300907c  -4.09  -4.09c  +1.3,+0.0,-0.0
# iter:  24 11:40:19   -12.300939c  -4.22  -4.20c  +1.3,+0.0,-0.0
# iter:  25 11:40:35   -12.301071c  -4.35  -4.24c  +1.3,+0.0,-0.0
# iter:  26 11:40:52   -12.301094c  -4.49  -4.21c  +1.3,+0.0,-0.0
# iter:  27 11:41:09   -12.301088c  -4.62  -4.28c  +1.3,+0.0,-0.0
# iter:  28 11:41:25   -12.301181c  -4.75  -4.31c  +1.3,+0.0,-0.0
# iter:  29 11:41:42   -12.301155c  -4.88  -4.27c  +1.3,+0.0,-0.0
# iter:  30 11:41:59   -12.301157c  -5.01  -4.34c  +1.3,+0.0,-0.0
# iter:  31 11:42:16   -12.301146c  -5.14  -4.35c  +1.3,+0.0,-0.0
# iter:  32 11:42:32   -12.301115c  -5.25  -4.31c  +1.3,+0.0,-0.0
# iter:  33 11:42:49   -12.301178c  -5.38  -4.09c  +1.3,+0.0,-0.0
# iter:  34 11:43:06   -12.301199c  -5.53  -4.36c  +1.3,+0.0,-0.0
# iter:  35 11:43:22   -12.301189c  -5.65  -4.39c  +1.3,+0.0,-0.0
# iter:  36 11:43:39   -12.301218c  -5.70  -4.47c  +1.3,+0.0,-0.0
# iter:  37 11:43:56   -12.301133c  -5.86  -4.25c  +1.3,+0.0,-0.0
# iter:  38 11:44:12   -12.301129c  -6.04  -4.64c  +1.3,+0.0,-0.0
# iter:  39 11:44:29   -12.301181c  -6.15  -4.67c  +1.3,+0.0,-0.0
# iter:  40 11:44:45   -12.301172c  -6.28  -4.75c  +1.3,+0.0,-0.0
# iter:  41 11:45:02   -12.301210c  -6.39  -4.85c  +1.3,+0.0,-0.0
# iter:  42 11:45:19   -12.301190c  -6.52  -4.74c  +1.3,+0.0,-0.0
# iter:  43 11:45:35   -12.301187c  -6.66  -5.14c  +1.3,+0.0,-0.0
# iter:  44 11:45:52   -12.301207c  -6.78  -5.28c  +1.3,+0.0,-0.0
# iter:  45 11:46:09   -12.301202c  -6.91  -5.29c  +1.3,+0.0,-0.0
# iter:  46 11:46:25   -12.301202c  -7.04  -5.62c  +1.3,+0.0,-0.0
# iter:  47 11:46:42   -12.301202c  -7.17  -5.52c  +1.3,+0.0,-0.0
# iter:  48 11:46:58   -12.301202c  -7.30  -5.61c  +1.3,+0.0,-0.0
# iter:  49 11:47:15   -12.301203c  -7.44c -5.58c  +1.3,+0.0,-0.0
scf_steps: 49
energies:  # eV
  coulomb:          -7.675174
  zero:              0.066682
  xc:              -14.884750
  external:          0.000000
  kinetic:          10.212761
  spinorbit:         0.000000
  entropy:          -0.041443
  total:           -12.321925
  extrapolated:    -12.301203

dipole moment: [-3.683220, -6.378695, -2.638794]  # |e|*Ang

total magnetic moment: [1.332055, 0.014950, -0.000000]

local magnetic moments: [
  [ 1.118976, -0.005761, -0.000000],  # Ni 0
  [ 0.016478, -0.080358, -0.000000],  # I  1
  [ 0.016409, -0.080372, -0.000000]]  # I  2


Fermi level: -1.191 eV

kpt = [-0.455, -0.455, 0.000], weight = 0.008:
  Band      eig [eV]   occ [0-1]
     0       -64.947       1.000
   ...
    22        -3.038       1.000
    23        -2.875       1.000
    24        -2.805       1.000
    25        -2.319       1.000
    26        -2.145       1.000
    27        -2.105       1.000
    28        -1.783       0.997
    29        -1.706       0.994
    30        -0.895       0.049
    31        -0.813       0.022
    32         2.006       0.000
    33         2.595       0.000
    34         4.325       0.000
    35         4.816       0.000
    36         4.864       0.000
    37         4.874       0.000
   ...
    39         5.237       0.000

kpt = [-0.455, -0.364, 0.000], weight = 0.008:
  Band      eig [eV]   occ [0-1]
     0       -64.947       1.000
   ...
    22        -3.003       1.000
    23        -2.901       1.000
    24        -2.862       1.000
    25        -2.433       1.000
    26        -2.169       1.000
    27        -2.139       1.000
    28        -1.718       0.995
    29        -1.549       0.973
    30        -0.851       0.032
    31        -0.697       0.007
    32         1.637       0.000
    33         2.558       0.000
    34         3.697       0.000
    35         4.462       0.000
    36         4.646       0.000
    37         4.829       0.000
   ...
    39         5.906       0.000

kpt = [-0.455, -0.273, 0.000], weight = 0.008:
  Band      eig [eV]   occ [0-1]
     0       -64.947       1.000
   ...
    22        -2.939       1.000
    23        -2.922       1.000
    24        -2.808       1.000
    25        -2.458       1.000
    26        -2.188       1.000
    27        -2.126       1.000
    28        -1.662       0.991
    29        -1.470       0.942
    30        -0.882       0.043
    31        -0.670       0.005
    32         1.801       0.000
    33         2.324       0.000
    34         3.835       0.000
    35         4.407       0.000
    36         4.421       0.000
    37         4.927       0.000
   ...
    39         5.155       0.000
(only showing first 3 out of 121 k-points)

Gap: 0.381 eV
Transition (v -> c):
  (s=0, k=38, n=29, [-0.18, 0.00, 0.00]) -> (s=0, k=90, n=30, [0.27, -0.27, 0.00])
# Writing to Band/gsq-72.gpw (mode='')

