#  __  _  _
# | _ |_)|_||  |
# |__||  | ||/\| - 24.1.0

User:   s194113@n-62-28-16
Date:   Fri Apr 26 10:10:37 2024
Arch:   x86_64
Pid:    5951
CWD:    /work3/s194113/10302/10302_NM/NiI2
Python: 3.8.5
gpaw:   /zhome/87/8/147075/venv-name/gpaw/gpaw (10808453a8)
_gpaw:  /zhome/87/8/147075/venv-name/gpaw/
        _gpaw.cpython-38-x86_64-linux-gnu.so (10808453a8)
ase:    /zhome/87/8/147075/venv-name/ase/ase (version 3.23.0b1-c36115a2db)
numpy:  /zhome/87/8/147075/venv-name/lib/python3.8/site-packages/numpy (version 1.24.4)
scipy:  /zhome/87/8/147075/venv-name/lib/python3.8/site-packages/scipy (version 1.10.1)
libxc:  4.3.4
units:  Angstrom and eV
cores: 12
OpenMP: False
OMP_NUM_THREADS: 1

---
input parameters:
  kpts: 
    density: 6.0
    gamma: True
  magmoms: [[1.28782608, 0, 0], [0.19870794, 0, 0], [0.19870794, 0, 0]]
  mixer: 
    backend: 'pulay'
    beta: 0.05
    method: 'sum'
    nmaxold: 5
    weight: 100
  mode: 
    name: 'pw'
    ecut: 600.0
    qspiral: array([0.26356589, 0.26356589, 0.        ])
  parallel: 
    kpt: None
    domain: 1
    band: 1
    order: 'kdb'
    stridebands: False
    augment_grids: False
    sl_auto: False
    sl_default: None
    sl_diagonalize: None
    sl_inverse_cholesky: None
    sl_lcao: None
    sl_lrtddft: None
    use_elpa: False
    elpasolver: '2stage'
    buffer_size: None
    gpu: False
  symmetry: 
    point_group: False
    time_reversal: False
  xc: 
    name: 'LDA'

#                        
#                        
#                        
#                        
#                        
#              I         
#                        
#        Ni              
#          I             
#                        
#                        
#                        
#                        
#                        

atoms: [  # symbols, positions [Ang] and initial magnetic moments
  [ Ni, [   0.000000,    0.000000,    7.513573], [ 1.288,  0.000,  0.000]], # 0
  [  I, [   1.984831,    1.145943,    9.027147], [ 0.199,  0.000,  0.000]], # 1
  [  I, [   0.000000,    2.291885,    6.000000], [ 0.199,  0.000,  0.000]]] # 2

cell: [  # Ang
#     x            y            z
  [   3.969662,    0.000000,    0.000000],
  [  -1.984831,    3.437828,    0.000000],
  [   0.000000,    0.000000,   15.027147]]

periodic: [True      , True      , False     ]
lengths:  [  3.969662,   3.969662,  15.027147]  # Ang
angles:   [ 90.000000,  90.000000, 120.000000]

symmetry:
  number of symmetries: 1
  rotations: [
    [[ 1,  0,  0], [ 0,  1,  0], [ 0,  0,  1]]]

bz sampling:
  number of bz points: 121
  number of ibz points: 121
  monkhorst-pack size: [11, 11, 1]
  monkhorst-pack shift: [0, 0, 0]
  points and weights: [
    [[ -0.45454545,  -0.45454545,   0.00000000], 0.00826446],  # 0
    [[ -0.45454545,  -0.36363636,   0.00000000], 0.00826446],  # 1
    [[ -0.45454545,  -0.27272727,   0.00000000], 0.00826446],  # 2
    [[ -0.45454545,  -0.18181818,   0.00000000], 0.00826446],  # 3
    [[ -0.45454545,  -0.09090909,   0.00000000], 0.00826446],  # 4
    [[ -0.45454545,   0.00000000,   0.00000000], 0.00826446],  # 5
    [[ -0.45454545,   0.09090909,   0.00000000], 0.00826446],  # 6
    [[ -0.45454545,   0.18181818,   0.00000000], 0.00826446],  # 7
    [[ -0.45454545,   0.27272727,   0.00000000], 0.00826446],  # 8
    [[ -0.45454545,   0.36363636,   0.00000000], 0.00826446],  # 9
    # ...
    [[  0.45454545,   0.45454545,   0.00000000], 0.00826446]]  # 120

plane wave coefficients: 6874
cutoff: 600.0 eV

spin-components: 4  # (non-collinear spins)
bands: 40
valence electrons: 30.0
spin-degeneracy: 1
dtype: complex128

memory:
    wave functions: 1_060_928_000  # bytes  (88_410_666 per core)

parallelization:
    kpt:    12
    domain: 1
    band:   1

density:
  components: 4
  grid points: [24 24 90]
  charge: 0.0  # |e|

potential:
  grid points: [24 24 90]

species:
  Ni:
    name: Nickel
    id: 1802175e8de9ea26d9f4394ec1a7d564
    Z: 28.0
    valence: 16
    core: 12
    charge: 0.0
    file: /zhome/86/d/1666/PAW/gpaw-setups-0.9.20000/Ni.LDA.gz
    compensation charges: {type: gauss,
                           rc: 0.36,
                           lmax: 2}
    cutoffs: {filter: 2.14,
              core: 1.98}
    valence states:
      #              energy  rcut
      - 4s(2.00)    -5.858   1.164
      - 3p(6.00)   -71.266   1.207
      - 4p(0.00)    -1.338   1.207
      - 3d(8.00)    -9.141   1.138
      -  s          21.353   1.164
      -  d          18.071   1.138
  
    # Using partial waves for Ni as LCAO basis

  I:
    name: Iodine
    id: b559721c0c096a7b4c8fc0e0f4de5cf4
    Z: 53.0
    valence: 7
    core: 46
    charge: 0.0
    file: /zhome/86/d/1666/PAW/gpaw-setups-0.9.20000/I.LDA.gz
    compensation charges: {type: gauss,
                           rc: 0.37,
                           lmax: 2}
    cutoffs: {filter: 2.06,
              core: 2.90}
    valence states:
      #              energy  rcut
      - 5s(2.00)   -17.626   1.164
      - 5p(5.00)    -7.241   1.164
      -  s           9.585   1.164
      -  p          19.970   1.164
      -  d           0.000   1.164
  
    # Using partial waves for I as LCAO basis

Reference energy: -428067.566327  # eV

eigensolver:
  name: 'Davidson'
  niter: 2
  converge_bands: 'occupied'
Density mixing:
  Method: sum
  Backend: pulay
  Linear mixing parameter: 0.05
  old densities: 5
  Damping of long wavelength oscillations: 100
occupation numbers:
  Fermi-Dirac:
    width: 0.1000  # eV
  

poisson solver:
  ecut: 4800.0  # eV

xc functional:
  name: None

convergence criteria:
- Maximum [total energy] change in last 3 cyles: 0.0005 eV / valence electron
- Maximum integral of absolute [dens]ity change: 0.0001 electrons / valence electron
- Maximum integral of absolute [eigenst]ate change: 4e-08 eV^2 / valence electron
maximum number of iterations: 333

#      iter     time        total  log10-change:
#                          energy   eigst   dens
# iter:   1 10:11:03   -13.068412                  +1.7,+0.0,+0.0
# iter:   2 10:11:19   -12.512941   +0.26  -1.31   +1.2,-0.0,-0.0
# iter:   3 10:11:36   -12.204145   -0.37  -1.46   +1.1,-0.0,+0.0
# iter:   4 10:11:52   -12.262520   -0.94  -1.68   +1.1,-0.0,+0.0
# iter:   5 10:12:08   -12.534747   -1.11  -1.67   +1.1,-0.0,+0.0
# iter:   6 10:12:25   -12.297009   -1.33  -1.74   +1.1,+0.0,+0.0
# iter:   7 10:12:41   -12.301545   -1.61  -2.23   +1.1,+0.0,+0.0
# iter:   8 10:12:58   -12.288963c  -1.77  -2.31   +1.1,+0.0,+0.0
# iter:   9 10:13:14   -12.290348c  -1.94  -2.76   +1.2,+0.0,+0.0
# iter:  10 10:13:30   -12.290711c  -2.12  -3.04   +1.2,+0.0,+0.0
# iter:  11 10:13:46   -12.291950c  -2.24  -3.10   +1.2,+0.0,-0.0
# iter:  12 10:14:03   -12.292163c  -2.41  -3.06   +1.2,+0.0,+0.0
# iter:  13 10:14:19   -12.292588c  -2.55  -3.70   +1.2,+0.0,+0.0
# iter:  14 10:14:35   -12.292556c  -2.68  -3.58   +1.2,+0.0,-0.0
# iter:  15 10:14:51   -12.292849c  -2.83  -3.47   +1.2,+0.0,-0.0
# iter:  16 10:15:08   -12.292975c  -2.96  -4.02c  +1.2,+0.0,-0.0
# iter:  17 10:15:24   -12.292970c  -3.09  -4.01c  +1.2,+0.0,-0.0
# iter:  18 10:15:40   -12.293049c  -3.22  -4.08c  +1.2,+0.0,-0.0
# iter:  19 10:15:57   -12.293126c  -3.35  -4.14c  +1.2,+0.0,-0.0
# iter:  20 10:16:13   -12.293127c  -3.49  -4.22c  +1.2,+0.0,-0.0
# iter:  21 10:16:29   -12.293170c  -3.62  -4.32c  +1.2,+0.0,-0.0
# iter:  22 10:16:45   -12.293185c  -3.75  -4.32c  +1.2,+0.0,-0.0
# iter:  23 10:17:02   -12.293213c  -3.88  -4.33c  +1.2,+0.0,-0.0
# iter:  24 10:17:18   -12.293393c  -4.00  -4.34c  +1.2,+0.0,-0.0
# iter:  25 10:17:34   -12.293399c  -4.13  -4.41c  +1.2,+0.0,-0.0
# iter:  26 10:17:51   -12.293432c  -4.26  -4.45c  +1.2,+0.0,-0.0
# iter:  27 10:18:07   -12.293501c  -4.39  -4.58c  +1.2,+0.0,-0.0
# iter:  28 10:18:23   -12.293523c  -4.52  -4.78c  +1.2,+0.0,-0.0
# iter:  29 10:18:40   -12.293516c  -4.65  -5.05c  +1.2,+0.0,-0.0
# iter:  30 10:18:56   -12.293537c  -4.78  -5.01c  +1.2,+0.0,-0.0
# iter:  31 10:19:12   -12.293563c  -4.91  -5.14c  +1.2,+0.0,-0.0
# iter:  32 10:19:29   -12.293565c  -5.04  -5.38c  +1.2,+0.0,-0.0
# iter:  33 10:19:45   -12.293557c  -5.17  -5.41c  +1.2,+0.0,-0.0
# iter:  34 10:20:02   -12.293564c  -5.31  -5.44c  +1.2,+0.0,-0.0
# iter:  35 10:20:18   -12.293564c  -5.43  -5.44c  +1.2,+0.0,-0.0
# iter:  36 10:20:34   -12.293562c  -5.57  -5.44c  +1.2,+0.0,-0.0
# iter:  37 10:20:51   -12.293562c  -5.70  -5.41c  +1.2,+0.0,-0.0
# iter:  38 10:21:07   -12.293562c  -5.83  -5.40c  +1.2,+0.0,-0.0
# iter:  39 10:21:23   -12.293583c  -5.97  -5.42c  +1.2,+0.0,-0.0
# iter:  40 10:21:40   -12.293590c  -6.11  -5.70c  +1.2,+0.0,-0.0
# iter:  41 10:21:56   -12.293589c  -6.23  -5.88c  +1.2,+0.0,-0.0
# iter:  42 10:22:12   -12.293589c  -6.37  -5.88c  +1.2,+0.0,-0.0
# iter:  43 10:22:29   -12.293593c  -6.50  -5.92c  +1.2,+0.0,-0.0
# iter:  44 10:22:45   -12.293591c  -6.63  -6.16c  +1.2,+0.0,-0.0
# iter:  45 10:23:02   -12.293591c  -6.77  -6.25c  +1.2,+0.0,-0.0
# iter:  46 10:23:18   -12.293593c  -6.91  -6.28c  +1.2,+0.0,-0.0
# iter:  47 10:23:35   -12.293592c  -7.04  -6.54c  +1.2,+0.0,-0.0
# iter:  48 10:23:51   -12.293593c  -7.18  -6.39c  +1.2,+0.0,-0.0
# iter:  49 10:24:07   -12.293593c  -7.31  -6.64c  +1.2,+0.0,-0.0
# iter:  50 10:24:23   -12.293593c  -7.44c -6.75c  +1.2,+0.0,-0.0
scf_steps: 50
energies:  # eV
  coulomb:          -7.697951
  zero:              0.066694
  xc:              -14.880154
  external:          0.000000
  kinetic:          10.239823
  spinorbit:         0.000000
  entropy:          -0.044009
  total:           -12.315597
  extrapolated:    -12.293593

dipole moment: [-3.549506, -6.147150, -1.649261]  # |e|*Ang

total magnetic moment: [1.198976, 0.009219, -0.000000]

local magnetic moments: [
  [ 1.113733, -0.003451, -0.000000],  # Ni 0
  [-0.004179, -0.047608, -0.000000],  # I  1
  [-0.004253, -0.047601, -0.000000]]  # I  2


Fermi level: -1.197 eV

kpt = [-0.455, -0.455, 0.000], weight = 0.008:
  Band      eig [eV]   occ [0-1]
     0       -64.942       1.000
   ...
    22        -3.024       1.000
    23        -2.836       1.000
    24        -2.789       1.000
    25        -2.335       1.000
    26        -2.136       1.000
    27        -2.103       1.000
    28        -1.804       0.998
    29        -1.751       0.996
    30        -0.939       0.070
    31        -0.867       0.036
    32         2.255       0.000
    33         2.600       0.000
    34         4.649       0.000
    35         4.820       0.000
    36         4.933       0.000
    37         4.993       0.000
   ...
    39         5.234       0.000

kpt = [-0.455, -0.364, 0.000], weight = 0.008:
  Band      eig [eV]   occ [0-1]
     0       -64.942       1.000
   ...
    22        -2.963       1.000
    23        -2.885       1.000
    24        -2.829       1.000
    25        -2.445       1.000
    26        -2.185       1.000
    27        -2.128       1.000
    28        -1.719       0.995
    29        -1.551       0.972
    30        -0.878       0.040
    31        -0.741       0.010
    32         1.806       0.000
    33         2.554       0.000
    34         3.961       0.000
    35         4.431       0.000
    36         4.563       0.000
    37         4.866       0.000
   ...
    39         5.618       0.000

kpt = [-0.455, -0.273, 0.000], weight = 0.008:
  Band      eig [eV]   occ [0-1]
     0       -64.942       1.000
   ...
    22        -2.973       1.000
    23        -2.901       1.000
    24        -2.801       1.000
    25        -2.465       1.000
    26        -2.229       1.000
    27        -2.111       1.000
    28        -1.625       0.986
    29        -1.426       0.908
    30        -0.880       0.041
    31        -0.637       0.004
    32         1.699       0.000
    33         2.301       0.000
    34         3.689       0.000
    35         4.269       0.000
    36         4.363       0.000
    37         4.757       0.000
   ...
    39         5.083       0.000
(only showing first 3 out of 121 k-points)

Gap: 0.369 eV
Transition (v -> c):
  (s=0, k=103, n=29, [0.36, -0.09, 0.00]) -> (s=0, k=10, n=30, [-0.45, 0.45, 0.00])
# Writing to Band/gsq-66.gpw (mode='')

---

timing:  # [seconds]
  Total: 2503.873  # ━━━━━━━━━━━━━━━━━━━━━━━━━━━━━━━━━━━━━━━━━━━━━━━━━━━━━━━━
  Init:    10.754  # 
  SCF:    815.964  # ━━━━━━━━━━━━━━━━━━

Max RSS: 2935.559  # MiB
