#  __  _  _
# | _ |_)|_||  |
# |__||  | ||/\| - 24.1.0

User:   s194113@n-62-28-29
Date:   Mon Apr 22 23:50:21 2024
Arch:   x86_64
Pid:    26782
CWD:    /zhome/87/8/147075/10302/10302_NM/MnI2/V_con
Python: 3.8.5
gpaw:   /zhome/87/8/147075/venv-name/gpaw/gpaw (10808453a8)
_gpaw:  /zhome/87/8/147075/venv-name/gpaw/
        _gpaw.cpython-38-x86_64-linux-gnu.so (10808453a8)
ase:    /zhome/87/8/147075/venv-name/ase/ase (version 3.23.0b1-c36115a2db)
numpy:  /zhome/87/8/147075/venv-name/lib/python3.8/site-packages/numpy (version 1.24.4)
scipy:  /zhome/87/8/147075/venv-name/lib/python3.8/site-packages/scipy (version 1.10.1)
libxc:  4.3.4
units:  Angstrom and eV
cores: 12
OpenMP: False
OMP_NUM_THREADS: 1

---
input parameters:
  kpts: 
    density: 6.0
    gamma: True
  magmoms: [[1, 0, 0], [0, 0, 0], [0, 0, 0]]
  mixer: 
    backend: 'pulay'
    beta: 0.05
    method: 'sum'
    nmaxold: 5
    weight: 100
  mode: 
    name: 'pw'
    ecut: 600
    qspiral: array([0.4, 0. , 0. ])
  parallel: 
    kpt: None
    domain: 1
    band: 1
    order: 'kdb'
    stridebands: False
    augment_grids: False
    sl_auto: False
    sl_default: None
    sl_diagonalize: None
    sl_inverse_cholesky: None
    sl_lcao: None
    sl_lrtddft: None
    use_elpa: False
    elpasolver: '2stage'
    buffer_size: None
    gpu: False
  symmetry: 
    point_group: False
    time_reversal: False
  xc: 
    name: 'LDA'

#                        
#                        
#                        
#                        
#                        
#              I         
#                        
#        Mn              
#          I             
#                        
#                        
#                        
#                        
#                        

atoms: [  # symbols, positions [Ang] and initial magnetic moments
  [ Mn, [   0.000000,    0.000000,    8.513573], [ 1.000,  0.000,  0.000]], # 0
  [  I, [   2.083000,    1.202621,   10.027147], [ 0.000,  0.000,  0.000]], # 1
  [  I, [   0.000000,    2.405241,    7.000000], [ 0.000,  0.000,  0.000]]] # 2

cell: [  # Ang
#     x            y            z
  [   4.166000,    0.000000,    0.000000],
  [  -2.083000,    3.607862,    0.000000],
  [   0.000000,   -0.000000,   17.027147]]

periodic: [True      , True      , False     ]
lengths:  [  4.166000,   4.166000,  17.027147]  # Ang
angles:   [ 90.000000,  90.000000, 120.000000]

symmetry:
  number of symmetries: 1
  rotations: [
    [[ 1,  0,  0], [ 0,  1,  0], [ 0,  0,  1]]]

bz sampling:
  number of bz points: 121
  number of ibz points: 121
  monkhorst-pack size: [11, 11, 1]
  monkhorst-pack shift: [0, 0, 0]
  points and weights: [
    [[ -0.45454545,  -0.45454545,   0.00000000], 0.00826446],  # 0
    [[ -0.45454545,  -0.36363636,   0.00000000], 0.00826446],  # 1
    [[ -0.45454545,  -0.27272727,   0.00000000], 0.00826446],  # 2
    [[ -0.45454545,  -0.18181818,   0.00000000], 0.00826446],  # 3
    [[ -0.45454545,  -0.09090909,   0.00000000], 0.00826446],  # 4
    [[ -0.45454545,   0.00000000,   0.00000000], 0.00826446],  # 5
    [[ -0.45454545,   0.09090909,   0.00000000], 0.00826446],  # 6
    [[ -0.45454545,   0.18181818,   0.00000000], 0.00826446],  # 7
    [[ -0.45454545,   0.27272727,   0.00000000], 0.00826446],  # 8
    [[ -0.45454545,   0.36363636,   0.00000000], 0.00826446],  # 9
    # ...
    [[  0.45454545,   0.45454545,   0.00000000], 0.00826446]]  # 120

plane wave coefficients: 8581
cutoff: 600.0 eV

spin-components: 4  # (non-collinear spins)
bands: 42
valence electrons: 29.0
spin-degeneracy: 1
dtype: complex128

memory:
    wave functions: 1_389_459_456  # bytes  (115_788_288 per core)

parallelization:
    kpt:    12
    domain: 1
    band:   1

density:
  components: 4
  grid points: [24 24 98]
  charge: 0.0  # |e|

potential:
  grid points: [24 24 98]

species:
  Mn:
    name: Manganese
    id: 0d715a8018be061a6e9ea6f2d364ac92
    Z: 25.0
    valence: 15
    core: 10
    charge: 0.0
    file: /zhome/86/d/1666/PAW/gpaw-setups-0.9.20000/Mn.LDA.gz
    compensation charges: {type: gauss,
                           rc: 0.38,
                           lmax: 2}
    cutoffs: {filter: 2.14,
              core: 0.86}
    valence states:
      #              energy  rcut
      - 3s(2.00)   -85.387   1.275
      - 4s(2.00)    -5.282   1.275
      - 3p(6.00)   -54.493   1.281
      - 4p(0.00)    -1.471   1.281
      - 3d(5.00)    -7.009   1.138
      -  d          20.203   1.138
  
    # Using partial waves for Mn as LCAO basis

  I:
    name: Iodine
    id: b559721c0c096a7b4c8fc0e0f4de5cf4
    Z: 53.0
    valence: 7
    core: 46
    charge: 0.0
    file: /zhome/86/d/1666/PAW/gpaw-setups-0.9.20000/I.LDA.gz
    compensation charges: {type: gauss,
                           rc: 0.37,
                           lmax: 2}
    cutoffs: {filter: 2.06,
              core: 2.90}
    valence states:
      #              energy  rcut
      - 5s(2.00)   -17.626   1.164
      - 5p(5.00)    -7.241   1.164
      -  s           9.585   1.164
      -  p          19.970   1.164
      -  d           0.000   1.164
  
    # Using partial waves for I as LCAO basis

Reference energy: -418222.442431  # eV

eigensolver:
  name: 'Davidson'
  niter: 2
  converge_bands: 'occupied'
Density mixing:
  Method: sum
  Backend: pulay
  Linear mixing parameter: 0.05
  old densities: 5
  Damping of long wavelength oscillations: 100
occupation numbers:
  Fermi-Dirac:
    width: 0.1000  # eV
  

poisson solver:
  ecut: 4800.0  # eV

xc functional:
  name: None

convergence criteria:
- Maximum [total energy] change in last 3 cyles: 0.0005 eV / valence electron
- Maximum integral of absolute [dens]ity change: 0.0001 electrons / valence electron
- Maximum integral of absolute [eigenst]ate change: 4e-08 eV^2 / valence electron
maximum number of iterations: 333

#      iter     time        total  log10-change:
#                          energy   eigst   dens
# iter:   1 23:50:52   -14.915853                  +1.0,+0.0,+0.0
# iter:   2 23:51:12   -13.820872   -0.26  -1.10   +0.9,-0.0,+0.0
# iter:   3 23:51:32   -13.649429   -0.79  -1.38   +1.1,-0.0,+0.0
# iter:   4 23:51:52   -13.850588   -1.00  -1.54   +1.4,-0.0,-0.0
# iter:   5 23:52:11   -13.921599   -1.59  -1.65   +1.8,-0.0,-0.0
# iter:   6 23:52:31   -14.135588   -1.76  -1.62   +2.0,-0.0,-0.0
# iter:   7 23:52:50   -14.244244   -2.10  -1.49   +2.3,-0.0,+0.0
# iter:   8 23:53:10   -14.776847   -0.81  -1.46   +3.3,+0.0,-0.0
# iter:   9 23:53:29   -14.829911   -2.29  -2.02   +3.3,+0.0,+0.0
# iter:  10 23:53:49   -14.946935   -2.23  -1.90   +3.6,+0.0,+0.0
# iter:  11 23:54:09   -15.214921   -1.40  -2.07   +4.9,+0.0,-0.0
# iter:  12 23:54:28   -15.097137   -1.85  -1.72   +3.9,+0.0,-0.0
# iter:  13 23:54:47   -15.181372   -2.37  -2.11   +4.6,+0.0,+0.0
# iter:  14 23:55:07   -15.181964   -3.39  -2.69   +4.4,+0.0,+0.0
# iter:  15 23:55:26   -15.183102c  -3.74  -2.88   +4.4,+0.0,+0.0
# iter:  16 23:55:45   -15.185049c  -3.85  -2.97   +4.4,+0.0,+0.0
# iter:  17 23:56:05   -15.185946c  -3.95  -3.05   +4.5,+0.0,+0.0
# iter:  18 23:56:24   -15.185717c  -4.31  -3.36   +4.4,+0.0,+0.0
# iter:  19 23:56:43   -15.185760c  -4.48  -3.46   +4.4,+0.0,+0.0
# iter:  20 23:57:03   -15.185804c  -4.59  -3.51   +4.5,+0.0,+0.0
# iter:  21 23:57:22   -15.185817c  -4.82  -3.73   +4.5,+0.0,-0.0
# iter:  22 23:57:41   -15.185816c  -5.01  -3.86   +4.5,+0.0,+0.0
# iter:  23 23:58:01   -15.185845c  -5.13  -3.92   +4.5,+0.0,+0.0
# iter:  24 23:58:20   -15.185853c  -5.30  -3.96   +4.5,+0.0,+0.0
# iter:  25 23:58:39   -15.185855c  -5.43  -3.98   +4.5,+0.0,+0.0
# iter:  26 23:58:59   -15.185856c  -5.58  -4.09c  +4.5,+0.0,+0.0
# iter:  27 23:59:18   -15.185853c  -5.74  -4.11c  +4.5,+0.0,-0.0
# iter:  28 23:59:37   -15.185849c  -5.90  -4.16c  +4.5,+0.0,-0.0
# iter:  29 23:59:57   -15.185837c  -6.04  -4.20c  +4.5,+0.0,-0.0
# iter:  30 00:00:16   -15.185836c  -6.19  -4.39c  +4.5,+0.0,-0.0
# iter:  31 00:00:35   -15.185841c  -6.31  -4.44c  +4.5,+0.0,-0.0
# iter:  32 00:00:55   -15.185843c  -6.46  -4.50c  +4.5,+0.0,-0.0
# iter:  33 00:01:14   -15.185851c  -6.48  -4.53c  +4.5,+0.0,-0.0
# iter:  34 00:01:33   -15.185851c  -6.69  -4.68c  +4.5,+0.0,+0.0
# iter:  35 00:01:53   -15.185850c  -6.59  -4.72c  +4.5,+0.0,+0.0
# iter:  36 00:02:12   -15.185852c  -6.78  -4.84c  +4.5,+0.0,+0.0
# iter:  37 00:02:31   -15.185852c  -7.07  -5.03c  +4.5,+0.0,-0.0
# iter:  38 00:02:51   -15.185851c  -7.15  -5.17c  +4.5,+0.0,-0.0
# iter:  39 00:03:10   -15.185853c  -7.24  -5.20c  +4.5,+0.0,-0.0
# iter:  40 00:03:29   -15.185852c  -7.44c -5.46c  +4.5,+0.0,-0.0
scf_steps: 40
energies:  # eV
  coulomb:         -17.469072
  zero:              0.089091
  xc:              -18.402073
  external:          0.000000
  kinetic:          20.597536
  spinorbit:         0.000000
  entropy:          -0.002668
  total:           -15.187187
  extrapolated:    -15.185852

dipole moment: [-4.835102, -8.914430, -11.856060]  # |e|*Ang

total magnetic moment: [4.460294, 0.007559, -0.000000]

local magnetic moments: [
  [ 4.259560,  0.000000,  0.000000],  # Mn 0
  [-0.014484, -0.030048, -0.000000],  # I  1
  [ 0.029380, -0.015795, -0.000000]]  # I  2


Fermi level: -1.524 eV

kpt = [-0.455, -0.455, 0.000], weight = 0.008:
  Band      eig [eV]   occ [0-1]
     0       -82.410       1.000
   ...
    21        -4.438       1.000
    22        -4.317       1.000
    23        -4.203       1.000
    24        -4.105       1.000
    25        -3.779       1.000
    26        -3.710       1.000
    27        -2.434       1.000
    28        -2.245       0.999
    29        -0.808       0.001
    30        -0.613       0.000
    31        -0.575       0.000
    32         0.156       0.000
    33         0.330       0.000
    34         1.530       0.000
    35         2.405       0.000
    36         3.200       0.000
   ...
    41         4.886       0.000

kpt = [-0.455, -0.364, 0.000], weight = 0.008:
  Band      eig [eV]   occ [0-1]
     0       -82.410       1.000
   ...
    21        -4.456       1.000
    22        -4.221       1.000
    23        -4.165       1.000
    24        -4.009       1.000
    25        -3.730       1.000
    26        -3.664       1.000
    27        -2.521       1.000
    28        -2.180       0.999
    29        -0.812       0.001
    30        -0.621       0.000
    31        -0.547       0.000
    32         0.151       0.000
    33         0.308       0.000
    34         1.428       0.000
    35         2.306       0.000
    36         2.874       0.000
   ...
    41         4.921       0.000

kpt = [-0.455, -0.273, 0.000], weight = 0.008:
  Band      eig [eV]   occ [0-1]
     0       -82.410       1.000
   ...
    21        -4.392       1.000
    22        -4.146       1.000
    23        -4.115       1.000
    24        -3.883       1.000
    25        -3.695       1.000
    26        -3.543       1.000
    27        -2.612       1.000
    28        -2.171       0.998
    29        -0.757       0.000
    30        -0.610       0.000
    31        -0.559       0.000
    32         0.049       0.000
    33         0.293       0.000
    34         1.717       0.000
    35         2.386       0.000
    36         3.083       0.000
   ...
    41         4.806       0.000
(only showing first 3 out of 121 k-points)

Gap: 0.907 eV
Transition (v -> c):
  (s=0, k=60, n=28, [0.00, 0.00, 0.00]) -> (s=0, k=5, n=29, [-0.45, 0.00, 0.00])
# Writing to gsq-08.gpw (mode='')

