#  __  _  _
# | _ |_)|_||  |
# |__||  | ||/\| - 24.1.0

User:   s194113@n-62-28-29
Date:   Mon Apr 22 22:16:55 2024
Arch:   x86_64
Pid:    26782
CWD:    /zhome/87/8/147075/10302/10302_NM/MnI2/V_con
Python: 3.8.5
gpaw:   /zhome/87/8/147075/venv-name/gpaw/gpaw (10808453a8)
_gpaw:  /zhome/87/8/147075/venv-name/gpaw/
        _gpaw.cpython-38-x86_64-linux-gnu.so (10808453a8)
ase:    /zhome/87/8/147075/venv-name/ase/ase (version 3.23.0b1-c36115a2db)
numpy:  /zhome/87/8/147075/venv-name/lib/python3.8/site-packages/numpy (version 1.24.4)
scipy:  /zhome/87/8/147075/venv-name/lib/python3.8/site-packages/scipy (version 1.10.1)
libxc:  4.3.4
units:  Angstrom and eV
cores: 12
OpenMP: False
OMP_NUM_THREADS: 1

---
input parameters:
  kpts: 
    density: 6.0
    gamma: True
  magmoms: [[1, 0, 0], [0, 0, 0], [0, 0, 0]]
  mixer: 
    backend: 'pulay'
    beta: 0.05
    method: 'sum'
    nmaxold: 5
    weight: 100
  mode: 
    name: 'pw'
    ecut: 600
    qspiral: array([0.05, 0.  , 0.  ])
  parallel: 
    kpt: None
    domain: 1
    band: 1
    order: 'kdb'
    stridebands: False
    augment_grids: False
    sl_auto: False
    sl_default: None
    sl_diagonalize: None
    sl_inverse_cholesky: None
    sl_lcao: None
    sl_lrtddft: None
    use_elpa: False
    elpasolver: '2stage'
    buffer_size: None
    gpu: False
  symmetry: 
    point_group: False
    time_reversal: False
  xc: 
    name: 'LDA'

#                        
#                        
#                        
#                        
#                        
#              I         
#                        
#        Mn              
#          I             
#                        
#                        
#                        
#                        
#                        

atoms: [  # symbols, positions [Ang] and initial magnetic moments
  [ Mn, [   0.000000,    0.000000,    8.513573], [ 1.000,  0.000,  0.000]], # 0
  [  I, [   2.083000,    1.202621,   10.027147], [ 0.000,  0.000,  0.000]], # 1
  [  I, [   0.000000,    2.405241,    7.000000], [ 0.000,  0.000,  0.000]]] # 2

cell: [  # Ang
#     x            y            z
  [   4.166000,    0.000000,    0.000000],
  [  -2.083000,    3.607862,    0.000000],
  [   0.000000,   -0.000000,   17.027147]]

periodic: [True      , True      , False     ]
lengths:  [  4.166000,   4.166000,  17.027147]  # Ang
angles:   [ 90.000000,  90.000000, 120.000000]

symmetry:
  number of symmetries: 1
  rotations: [
    [[ 1,  0,  0], [ 0,  1,  0], [ 0,  0,  1]]]

bz sampling:
  number of bz points: 121
  number of ibz points: 121
  monkhorst-pack size: [11, 11, 1]
  monkhorst-pack shift: [0, 0, 0]
  points and weights: [
    [[ -0.45454545,  -0.45454545,   0.00000000], 0.00826446],  # 0
    [[ -0.45454545,  -0.36363636,   0.00000000], 0.00826446],  # 1
    [[ -0.45454545,  -0.27272727,   0.00000000], 0.00826446],  # 2
    [[ -0.45454545,  -0.18181818,   0.00000000], 0.00826446],  # 3
    [[ -0.45454545,  -0.09090909,   0.00000000], 0.00826446],  # 4
    [[ -0.45454545,   0.00000000,   0.00000000], 0.00826446],  # 5
    [[ -0.45454545,   0.09090909,   0.00000000], 0.00826446],  # 6
    [[ -0.45454545,   0.18181818,   0.00000000], 0.00826446],  # 7
    [[ -0.45454545,   0.27272727,   0.00000000], 0.00826446],  # 8
    [[ -0.45454545,   0.36363636,   0.00000000], 0.00826446],  # 9
    # ...
    [[  0.45454545,   0.45454545,   0.00000000], 0.00826446]]  # 120

plane wave coefficients: 8581
cutoff: 600.0 eV

spin-components: 4  # (non-collinear spins)
bands: 42
valence electrons: 29.0
spin-degeneracy: 1
dtype: complex128

memory:
    wave functions: 1_389_459_456  # bytes  (115_788_288 per core)

parallelization:
    kpt:    12
    domain: 1
    band:   1

density:
  components: 4
  grid points: [24 24 98]
  charge: 0.0  # |e|

potential:
  grid points: [24 24 98]

species:
  Mn:
    name: Manganese
    id: 0d715a8018be061a6e9ea6f2d364ac92
    Z: 25.0
    valence: 15
    core: 10
    charge: 0.0
    file: /zhome/86/d/1666/PAW/gpaw-setups-0.9.20000/Mn.LDA.gz
    compensation charges: {type: gauss,
                           rc: 0.38,
                           lmax: 2}
    cutoffs: {filter: 2.14,
              core: 0.86}
    valence states:
      #              energy  rcut
      - 3s(2.00)   -85.387   1.275
      - 4s(2.00)    -5.282   1.275
      - 3p(6.00)   -54.493   1.281
      - 4p(0.00)    -1.471   1.281
      - 3d(5.00)    -7.009   1.138
      -  d          20.203   1.138
  
    # Using partial waves for Mn as LCAO basis

  I:
    name: Iodine
    id: b559721c0c096a7b4c8fc0e0f4de5cf4
    Z: 53.0
    valence: 7
    core: 46
    charge: 0.0
    file: /zhome/86/d/1666/PAW/gpaw-setups-0.9.20000/I.LDA.gz
    compensation charges: {type: gauss,
                           rc: 0.37,
                           lmax: 2}
    cutoffs: {filter: 2.06,
              core: 2.90}
    valence states:
      #              energy  rcut
      - 5s(2.00)   -17.626   1.164
      - 5p(5.00)    -7.241   1.164
      -  s           9.585   1.164
      -  p          19.970   1.164
      -  d           0.000   1.164
  
    # Using partial waves for I as LCAO basis

Reference energy: -418222.442431  # eV

eigensolver:
  name: 'Davidson'
  niter: 2
  converge_bands: 'occupied'
Density mixing:
  Method: sum
  Backend: pulay
  Linear mixing parameter: 0.05
  old densities: 5
  Damping of long wavelength oscillations: 100
occupation numbers:
  Fermi-Dirac:
    width: 0.1000  # eV
  

poisson solver:
  ecut: 4800.0  # eV

xc functional:
  name: None

convergence criteria:
- Maximum [total energy] change in last 3 cyles: 0.0005 eV / valence electron
- Maximum integral of absolute [dens]ity change: 0.0001 electrons / valence electron
- Maximum integral of absolute [eigenst]ate change: 4e-08 eV^2 / valence electron
maximum number of iterations: 333

#      iter     time        total  log10-change:
#                          energy   eigst   dens
# iter:   1 22:17:26   -15.164696                  +1.0,+0.0,+0.0
# iter:   2 22:17:46   -13.823333   -0.57  -1.10   +0.9,-0.0,+0.0
# iter:   3 22:18:05   -13.613431   -0.92  -1.37   +1.0,-0.0,+0.0
# iter:   4 22:18:25   -13.759784   -1.05  -1.53   +1.3,-0.0,+0.0
# iter:   5 22:18:44   -13.787025   -1.73  -1.66   +1.8,-0.0,+0.0
# iter:   6 22:19:04   -13.861169   -2.01  -1.66   +2.1,-0.0,+0.0
# iter:   7 22:19:24   -14.029071   -1.65  -1.58   +2.5,-0.0,+0.0
# iter:   8 22:19:44   -14.296770   -1.70  -1.61   +3.1,+0.0,-0.0
# iter:   9 22:20:03   -13.849672   -2.19  -1.66   +2.8,-0.0,+0.0
# iter:  10 22:20:23   -14.802572   -1.63  -1.56   +3.7,+0.0,-0.0
# iter:  11 22:20:43   -15.143553   -1.52  -1.85   +4.8,+0.0,+0.0
# iter:  12 22:21:02   -14.963880   -2.37  -2.13   +4.2,+0.0,-0.0
# iter:  13 22:21:22   -14.883180   -3.15  -1.83   +4.1,+0.0,-0.0
# iter:  14 22:21:42   -14.950031   -3.52  -1.88   +4.2,+0.0,-0.0
# iter:  15 22:22:01   -15.154316   -1.91  -1.91   +5.0,+0.0,-0.0
# iter:  16 22:22:21   -15.155822   -2.95  -2.46   +5.0,+0.0,-0.0
# iter:  17 22:22:41   -15.154579c  -3.59  -2.47   +5.0,+0.0,-0.0
# iter:  18 22:23:00   -15.150899c  -3.32  -2.51   +5.0,+0.0,+0.0
# iter:  19 22:23:20   -15.149976c  -3.94  -2.65   +5.0,+0.0,-0.0
# iter:  20 22:23:39   -15.149835c  -4.20  -2.74   +5.0,+0.0,-0.0
# iter:  21 22:23:59   -15.151405c  -4.14  -2.86   +5.0,+0.0,-0.0
# iter:  22 22:24:18   -15.151476c  -3.60  -3.18   +5.0,+0.0,-0.0
# iter:  23 22:24:38   -15.151960c  -4.50  -3.05   +5.0,+0.0,+0.0
# iter:  24 22:24:57   -15.150808c  -4.15  -2.94   +5.0,+0.0,-0.0
# iter:  25 22:25:17   -15.150892c  -5.23  -3.33   +5.0,+0.0,-0.0
# iter:  26 22:25:36   -15.151255c  -4.67  -3.28   +5.0,+0.0,-0.0
# iter:  27 22:25:56   -15.151061c  -5.45  -3.16   +5.0,+0.0,-0.0
# iter:  28 22:26:15   -15.150759c  -4.14  -3.22   +5.0,+0.0,-0.0
# iter:  29 22:26:35   -15.150629c  -5.11  -3.42   +5.0,+0.0,-0.0
# iter:  30 22:26:54   -15.150595c  -5.85  -3.49   +5.0,+0.0,-0.0
# iter:  31 22:27:14   -15.150853c  -5.17  -3.54   +5.0,+0.0,-0.0
# iter:  32 22:27:34   -15.150821c  -5.74  -3.74   +5.0,+0.0,-0.0
# iter:  33 22:27:53   -15.150816c  -6.10  -3.85   +5.0,+0.0,+0.0
# iter:  34 22:28:13   -15.150838c  -6.54  -3.90   +5.0,+0.0,-0.0
# iter:  35 22:28:32   -15.150851c  -6.55  -3.93   +5.0,+0.0,+0.0
# iter:  36 22:28:52   -15.150851c  -6.70  -4.05c  +5.0,+0.0,-0.0
# iter:  37 22:29:11   -15.150840c  -7.12  -4.11c  +5.0,+0.0,+0.0
# iter:  38 22:29:31   -15.150832c  -7.05  -4.23c  +5.0,+0.0,+0.0
# iter:  39 22:29:50   -15.150850c  -6.90  -4.28c  +5.0,+0.0,+0.0
# iter:  40 22:30:10   -15.150847c  -7.07  -4.44c  +5.0,+0.0,+0.0
# iter:  41 22:30:30   -15.150850c  -7.66c -4.53c  +5.0,+0.0,-0.0
scf_steps: 41
energies:  # eV
  coulomb:         -18.488867
  zero:              0.085393
  xc:              -18.573597
  external:          0.000000
  kinetic:          21.828666
  spinorbit:         0.000000
  entropy:          -0.004892
  total:           -15.153296
  extrapolated:    -15.150850

dipole moment: [-5.743832, -9.998743, -16.403421]  # |e|*Ang

total magnetic moment: [4.978545, 0.004808, -0.000000]

local magnetic moments: [
  [ 4.313900,  0.000000,  0.000000],  # Mn 0
  [ 0.092345, -0.019656, -0.000000],  # I  1
  [ 0.093900, -0.009842, -0.000000]]  # I  2


Fermi level: -1.566 eV

kpt = [-0.455, -0.455, 0.000], weight = 0.008:
  Band      eig [eV]   occ [0-1]
     0       -82.501       1.000
   ...
    21        -4.377       1.000
    22        -4.280       1.000
    23        -4.246       1.000
    24        -4.146       1.000
    25        -4.119       1.000
    26        -3.982       1.000
    27        -2.264       0.999
    28        -2.209       0.998
    29        -1.048       0.006
    30        -0.637       0.000
    31        -0.598       0.000
    32         0.299       0.000
    33         0.404       0.000
    34         1.005       0.000
    35         1.935       0.000
    36         2.748       0.000
   ...
    41         4.460       0.000

kpt = [-0.455, -0.364, 0.000], weight = 0.008:
  Band      eig [eV]   occ [0-1]
     0       -82.501       1.000
   ...
    21        -4.483       1.000
    22        -4.371       1.000
    23        -4.194       1.000
    24        -4.150       1.000
    25        -3.954       1.000
    26        -3.868       1.000
    27        -2.474       1.000
    28        -2.290       0.999
    29        -0.865       0.001
    30        -0.626       0.000
    31        -0.581       0.000
    32         0.141       0.000
    33         0.336       0.000
    34         1.505       0.000
    35         2.368       0.000
    36         3.468       0.000
   ...
    41         4.571       0.000

kpt = [-0.455, -0.273, 0.000], weight = 0.008:
  Band      eig [eV]   occ [0-1]
     0       -82.501       1.000
   ...
    21        -4.592       1.000
    22        -4.377       1.000
    23        -4.199       1.000
    24        -4.157       1.000
    25        -3.879       1.000
    26        -3.810       1.000
    27        -2.598       1.000
    28        -2.310       0.999
    29        -0.795       0.000
    30        -0.608       0.000
    31        -0.570       0.000
    32         0.071       0.000
    33         0.295       0.000
    34         1.822       0.000
    35         2.668       0.000
    36         3.459       0.000
   ...
    41         4.861       0.000
(only showing first 3 out of 121 k-points)

Gap: 0.764 eV
Transition (v -> c):
  (s=0, k=60, n=28, [0.00, 0.00, 0.00]) -> (s=0, k=115, n=29, [0.45, 0.00, 0.00])
# Writing to gsq-01.gpw (mode='')

---

timing:  # [seconds]
  Total: 815.128  # ━━━━━━━━━━━━━━━━━━━━━━━━━━━━━━━━━━━━━━━━━━━━━━━━━━━━━━━━━
  Init:   12.440  # ━
  SCF:   802.235  # ━━━━━━━━━━━━━━━━━━━━━━━━━━━━━━━━━━━━━━━━━━━━━━━━━━━━━━━━

Max RSS: 467.289  # MiB
