#  __  _  _
# | _ |_)|_||  |
# |__||  | ||/\| - 24.1.0

User:   s194113@n-62-28-29
Date:   Mon Apr 22 22:04:39 2024
Arch:   x86_64
Pid:    26782
CWD:    /zhome/87/8/147075/10302/10302_NM/MnI2/V_con
Python: 3.8.5
gpaw:   /zhome/87/8/147075/venv-name/gpaw/gpaw (10808453a8)
_gpaw:  /zhome/87/8/147075/venv-name/gpaw/
        _gpaw.cpython-38-x86_64-linux-gnu.so (10808453a8)
ase:    /zhome/87/8/147075/venv-name/ase/ase (version 3.23.0b1-c36115a2db)
numpy:  /zhome/87/8/147075/venv-name/lib/python3.8/site-packages/numpy (version 1.24.4)
scipy:  /zhome/87/8/147075/venv-name/lib/python3.8/site-packages/scipy (version 1.10.1)
libxc:  4.3.4
units:  Angstrom and eV
cores: 12
OpenMP: False
OMP_NUM_THREADS: 1

---
input parameters:
  kpts: 
    density: 6.0
    gamma: True
  magmoms: [[1, 0, 0], [0, 0, 0], [0, 0, 0]]
  mixer: 
    backend: 'pulay'
    beta: 0.05
    method: 'sum'
    nmaxold: 5
    weight: 100
  mode: 
    name: 'pw'
    ecut: 600
    qspiral: array([0., 0., 0.])
  parallel: 
    kpt: None
    domain: 1
    band: 1
    order: 'kdb'
    stridebands: False
    augment_grids: False
    sl_auto: False
    sl_default: None
    sl_diagonalize: None
    sl_inverse_cholesky: None
    sl_lcao: None
    sl_lrtddft: None
    use_elpa: False
    elpasolver: '2stage'
    buffer_size: None
    gpu: False
  symmetry: 
    point_group: False
    time_reversal: False
  xc: 
    name: 'LDA'

#                        
#                        
#                        
#                        
#                        
#              I         
#                        
#        Mn              
#          I             
#                        
#                        
#                        
#                        
#                        

atoms: [  # symbols, positions [Ang] and initial magnetic moments
  [ Mn, [   0.000000,    0.000000,    8.513573], [ 1.000,  0.000,  0.000]], # 0
  [  I, [   2.083000,    1.202621,   10.027147], [ 0.000,  0.000,  0.000]], # 1
  [  I, [   0.000000,    2.405241,    7.000000], [ 0.000,  0.000,  0.000]]] # 2

cell: [  # Ang
#     x            y            z
  [   4.166000,    0.000000,    0.000000],
  [  -2.083000,    3.607862,    0.000000],
  [   0.000000,   -0.000000,   17.027147]]

periodic: [True      , True      , False     ]
lengths:  [  4.166000,   4.166000,  17.027147]  # Ang
angles:   [ 90.000000,  90.000000, 120.000000]

symmetry:
  number of symmetries: 1
  rotations: [
    [[ 1,  0,  0], [ 0,  1,  0], [ 0,  0,  1]]]

bz sampling:
  number of bz points: 121
  number of ibz points: 121
  monkhorst-pack size: [11, 11, 1]
  monkhorst-pack shift: [0, 0, 0]
  points and weights: [
    [[ -0.45454545,  -0.45454545,   0.00000000], 0.00826446],  # 0
    [[ -0.45454545,  -0.36363636,   0.00000000], 0.00826446],  # 1
    [[ -0.45454545,  -0.27272727,   0.00000000], 0.00826446],  # 2
    [[ -0.45454545,  -0.18181818,   0.00000000], 0.00826446],  # 3
    [[ -0.45454545,  -0.09090909,   0.00000000], 0.00826446],  # 4
    [[ -0.45454545,   0.00000000,   0.00000000], 0.00826446],  # 5
    [[ -0.45454545,   0.09090909,   0.00000000], 0.00826446],  # 6
    [[ -0.45454545,   0.18181818,   0.00000000], 0.00826446],  # 7
    [[ -0.45454545,   0.27272727,   0.00000000], 0.00826446],  # 8
    [[ -0.45454545,   0.36363636,   0.00000000], 0.00826446],  # 9
    # ...
    [[  0.45454545,   0.45454545,   0.00000000], 0.00826446]]  # 120

plane wave coefficients: 8581
cutoff: 600.0 eV

spin-components: 4  # (non-collinear spins)
bands: 42
valence electrons: 29.0
spin-degeneracy: 1
dtype: complex128

memory:
    wave functions: 1_389_459_456  # bytes  (115_788_288 per core)

parallelization:
    kpt:    12
    domain: 1
    band:   1

density:
  components: 4
  grid points: [24 24 98]
  charge: 0.0  # |e|

potential:
  grid points: [24 24 98]

species:
  Mn:
    name: Manganese
    id: 0d715a8018be061a6e9ea6f2d364ac92
    Z: 25.0
    valence: 15
    core: 10
    charge: 0.0
    file: /zhome/86/d/1666/PAW/gpaw-setups-0.9.20000/Mn.LDA.gz
    compensation charges: {type: gauss,
                           rc: 0.38,
                           lmax: 2}
    cutoffs: {filter: 2.14,
              core: 0.86}
    valence states:
      #              energy  rcut
      - 3s(2.00)   -85.387   1.275
      - 4s(2.00)    -5.282   1.275
      - 3p(6.00)   -54.493   1.281
      - 4p(0.00)    -1.471   1.281
      - 3d(5.00)    -7.009   1.138
      -  d          20.203   1.138
  
    # Using partial waves for Mn as LCAO basis

  I:
    name: Iodine
    id: b559721c0c096a7b4c8fc0e0f4de5cf4
    Z: 53.0
    valence: 7
    core: 46
    charge: 0.0
    file: /zhome/86/d/1666/PAW/gpaw-setups-0.9.20000/I.LDA.gz
    compensation charges: {type: gauss,
                           rc: 0.37,
                           lmax: 2}
    cutoffs: {filter: 2.06,
              core: 2.90}
    valence states:
      #              energy  rcut
      - 5s(2.00)   -17.626   1.164
      - 5p(5.00)    -7.241   1.164
      -  s           9.585   1.164
      -  p          19.970   1.164
      -  d           0.000   1.164
  
    # Using partial waves for I as LCAO basis

Reference energy: -418222.442431  # eV

eigensolver:
  name: 'Davidson'
  niter: 2
  converge_bands: 'occupied'
Density mixing:
  Method: sum
  Backend: pulay
  Linear mixing parameter: 0.05
  old densities: 5
  Damping of long wavelength oscillations: 100
occupation numbers:
  Fermi-Dirac:
    width: 0.1000  # eV
  

poisson solver:
  ecut: 4800.0  # eV

xc functional:
  name: None

convergence criteria:
- Maximum [total energy] change in last 3 cyles: 0.0005 eV / valence electron
- Maximum integral of absolute [dens]ity change: 0.0001 electrons / valence electron
- Maximum integral of absolute [eigenst]ate change: 4e-08 eV^2 / valence electron
maximum number of iterations: 333

#      iter     time        total  log10-change:
#                          energy   eigst   dens
# iter:   1 22:05:11   -15.170234                  +1.0,+0.0,+0.0
# iter:   2 22:05:30   -13.824253   -0.56  -1.10   +0.9,+0.0,+0.0
# iter:   3 22:05:50   -13.613184   -0.89  -1.37   +1.0,+0.0,+0.0
# iter:   4 22:06:09   -13.755913   -1.03  -1.53   +1.3,-0.0,-0.0
# iter:   5 22:06:28   -13.781511   -1.67  -1.66   +1.8,-0.0,-0.0
# iter:   6 22:06:48   -13.851890   -1.95  -1.66   +2.1,-0.0,-0.0
# iter:   7 22:07:07   -14.032613   -1.61  -1.59   +2.5,-0.0,-0.0
# iter:   8 22:07:27   -14.279546   -1.76  -1.63   +3.1,+0.0,-0.0
# iter:   9 22:07:46   -13.865900   -2.21  -1.65   +2.8,+0.0,-0.0
# iter:  10 22:08:06   -14.779433   -1.62  -1.56   +3.7,+0.0,-0.0
# iter:  11 22:08:25   -15.152470   -1.60  -1.86   +4.9,-0.0,-0.0
# iter:  12 22:08:44   -15.108774   -2.91  -2.16   +4.6,-0.0,-0.0
# iter:  13 22:09:04   -15.011237   -3.21  -1.98   +4.4,-0.0,-0.0
# iter:  14 22:09:23   -15.145863   -2.24  -1.95   +4.9,-0.0,+0.0
# iter:  15 22:09:42   -15.149386   -3.34  -2.32   +4.8,-0.0,+0.0
# iter:  16 22:10:02   -15.152930c  -2.96  -2.22   +5.0,-0.0,+0.0
# iter:  17 22:10:22   -15.149100c  -3.00  -2.38   +5.1,-0.0,+0.0
# iter:  18 22:10:41   -15.145780c  -3.96  -2.59   +5.1,+0.0,+0.0
# iter:  19 22:11:01   -15.145079c  -3.94  -2.63   +5.1,-0.0,+0.0
# iter:  20 22:11:20   -15.150108c  -3.74  -2.67   +5.0,-0.0,+0.0
# iter:  21 22:11:40   -15.149114c  -4.05  -2.76   +5.0,+0.0,+0.0
# iter:  22 22:11:59   -15.158313c  -2.96  -2.85   +5.0,-0.0,-0.0
# iter:  23 22:12:19   -15.149047c  -3.28  -2.57   +5.0,-0.0,-0.0
# iter:  24 22:12:39   -15.149628c  -3.42  -3.11   +5.0,+0.0,+0.0
# iter:  25 22:12:59   -15.149032c  -4.44  -3.09   +5.0,+0.0,+0.0
# iter:  26 22:13:18   -15.148996c  -4.41  -3.43   +5.0,+0.0,+0.0
# iter:  27 22:13:38   -15.148981c  -5.66  -3.85   +5.0,-0.0,-0.0
# iter:  28 22:13:58   -15.149001c  -5.97  -3.94   +5.0,+0.0,+0.0
# iter:  29 22:14:18   -15.149012c  -6.12  -4.18c  +5.0,+0.0,+0.0
# iter:  30 22:14:37   -15.149010c  -6.38  -4.26c  +5.0,+0.0,+0.0
# iter:  31 22:14:57   -15.149022c  -6.50  -4.33c  +5.0,+0.0,+0.0
# iter:  32 22:15:16   -15.149016c  -6.67  -4.36c  +5.0,+0.0,+0.0
# iter:  33 22:15:36   -15.149013c  -6.68  -4.44c  +5.0,+0.0,+0.0
# iter:  34 22:15:56   -15.149013c  -7.04  -4.52c  +5.0,+0.0,+0.0
# iter:  35 22:16:15   -15.149009c  -6.84  -4.54c  +5.0,+0.0,+0.0
# iter:  36 22:16:35   -15.149000c  -7.17  -4.70c  +5.0,+0.0,+0.0
# iter:  37 22:16:55   -15.149001c  -7.54c -4.72c  +5.0,+0.0,+0.0
scf_steps: 37
energies:  # eV
  coulomb:         -18.514994
  zero:              0.087222
  xc:              -18.577841
  external:          0.000000
  kinetic:          21.859187
  spinorbit:         0.000000
  entropy:          -0.005151
  total:           -15.151576
  extrapolated:    -15.149001

dipole moment: [-5.801305, -10.048157, -16.521077]  # |e|*Ang

total magnetic moment: [4.992077, 0.000000, 0.000000]

local magnetic moments: [
  [ 4.315224,  0.000000,  0.000000],  # Mn 0
  [ 0.096129,  0.000000,  0.000000],  # I  1
  [ 0.096129, -0.000000, -0.000000]]  # I  2


Fermi level: -1.565 eV

kpt = [-0.455, -0.455, 0.000], weight = 0.008:
  Band      eig [eV]   occ [0-1]
     0       -82.505       1.000
   ...
    21        -4.375       1.000
    22        -4.275       1.000
    23        -4.240       1.000
    24        -4.148       1.000
    25        -4.125       1.000
    26        -3.994       1.000
    27        -2.262       0.999
    28        -2.208       0.998
    29        -1.052       0.006
    30        -0.638       0.000
    31        -0.601       0.000
    32         0.299       0.000
    33         0.407       0.000
    34         0.997       0.000
    35         1.916       0.000
    36         2.803       0.000
   ...
    41         4.459       0.000

kpt = [-0.455, -0.364, 0.000], weight = 0.008:
  Band      eig [eV]   occ [0-1]
     0       -82.505       1.000
   ...
    21        -4.489       1.000
    22        -4.371       1.000
    23        -4.185       1.000
    24        -4.172       1.000
    25        -3.951       1.000
    26        -3.877       1.000
    27        -2.484       1.000
    28        -2.286       0.999
    29        -0.866       0.001
    30        -0.627       0.000
    31        -0.583       0.000
    32         0.136       0.000
    33         0.339       0.000
    34         1.516       0.000
    35         2.364       0.000
    36         3.543       0.000
   ...
    41         4.704       0.000

kpt = [-0.455, -0.273, 0.000], weight = 0.008:
  Band      eig [eV]   occ [0-1]
     0       -82.505       1.000
   ...
    21        -4.612       1.000
    22        -4.371       1.000
    23        -4.210       1.000
    24        -4.162       1.000
    25        -3.877       1.000
    26        -3.822       1.000
    27        -2.604       1.000
    28        -2.307       0.999
    29        -0.799       0.000
    30        -0.610       0.000
    31        -0.569       0.000
    32         0.069       0.000
    33         0.298       0.000
    34         1.821       0.000
    35         2.680       0.000
    36         3.473       0.000
   ...
    41         5.233       0.000
(only showing first 3 out of 121 k-points)

Gap: 0.761 eV
Transition (v -> c):
  (s=0, k=60, n=28, [0.00, 0.00, 0.00]) -> (s=0, k=10, n=29, [-0.45, 0.45, 0.00])
# Writing to gsq-00.gpw (mode='')

---

timing:  # [seconds]
  Total: 738.039  # ━━━━━━━━━━━━━━━━━━━━━━━━━━━━━━━━━━━━━━━━━━━━━━━━━━━━━━━━━
  Init:   13.513  # ━
  SCF:   722.266  # ━━━━━━━━━━━━━━━━━━━━━━━━━━━━━━━━━━━━━━━━━━━━━━━━━━━━━━━━

Max RSS: 461.973  # MiB
  # ━━━━━━━━━━━━━━━━━━━━━━━━━━━━━━━━━━━━━━━━━━━━━━━━━━━━━━━━

Max RSS: 435.855  # MiB
