#  __  _  _
# | _ |_)|_||  |
# |__||  | ||/\| - 24.1.0

User:   s194113@n-62-28-29
Date:   Tue Apr 23 00:31:17 2024
Arch:   x86_64
Pid:    26782
CWD:    /zhome/87/8/147075/10302/10302_NM/MnI2/V_con
Python: 3.8.5
gpaw:   /zhome/87/8/147075/venv-name/gpaw/gpaw (10808453a8)
_gpaw:  /zhome/87/8/147075/venv-name/gpaw/
        _gpaw.cpython-38-x86_64-linux-gnu.so (10808453a8)
ase:    /zhome/87/8/147075/venv-name/ase/ase (version 3.23.0b1-c36115a2db)
numpy:  /zhome/87/8/147075/venv-name/lib/python3.8/site-packages/numpy (version 1.24.4)
scipy:  /zhome/87/8/147075/venv-name/lib/python3.8/site-packages/scipy (version 1.10.1)
libxc:  4.3.4
units:  Angstrom and eV
cores: 12
OpenMP: False
OMP_NUM_THREADS: 1

---
input parameters:
  kpts: 
    density: 6.0
    gamma: True
  magmoms: [[1, 0, 0], [0, 0, 0], [0, 0, 0]]
  mixer: 
    backend: 'pulay'
    beta: 0.05
    method: 'sum'
    nmaxold: 5
    weight: 100
  mode: 
    name: 'pw'
    ecut: 600
    qspiral: array([0.47222222, 0.05555556, 0.        ])
  parallel: 
    kpt: None
    domain: 1
    band: 1
    order: 'kdb'
    stridebands: False
    augment_grids: False
    sl_auto: False
    sl_default: None
    sl_diagonalize: None
    sl_inverse_cholesky: None
    sl_lcao: None
    sl_lrtddft: None
    use_elpa: False
    elpasolver: '2stage'
    buffer_size: None
    gpu: False
  symmetry: 
    point_group: False
    time_reversal: False
  xc: 
    name: 'LDA'

#                        
#                        
#                        
#                        
#                        
#              I         
#                        
#        Mn              
#          I             
#                        
#                        
#                        
#                        
#                        

atoms: [  # symbols, positions [Ang] and initial magnetic moments
  [ Mn, [   0.000000,    0.000000,    8.513573], [ 1.000,  0.000,  0.000]], # 0
  [  I, [   2.083000,    1.202621,   10.027147], [ 0.000,  0.000,  0.000]], # 1
  [  I, [   0.000000,    2.405241,    7.000000], [ 0.000,  0.000,  0.000]]] # 2

cell: [  # Ang
#     x            y            z
  [   4.166000,    0.000000,    0.000000],
  [  -2.083000,    3.607862,    0.000000],
  [   0.000000,   -0.000000,   17.027147]]

periodic: [True      , True      , False     ]
lengths:  [  4.166000,   4.166000,  17.027147]  # Ang
angles:   [ 90.000000,  90.000000, 120.000000]

symmetry:
  number of symmetries: 1
  rotations: [
    [[ 1,  0,  0], [ 0,  1,  0], [ 0,  0,  1]]]

bz sampling:
  number of bz points: 121
  number of ibz points: 121
  monkhorst-pack size: [11, 11, 1]
  monkhorst-pack shift: [0, 0, 0]
  points and weights: [
    [[ -0.45454545,  -0.45454545,   0.00000000], 0.00826446],  # 0
    [[ -0.45454545,  -0.36363636,   0.00000000], 0.00826446],  # 1
    [[ -0.45454545,  -0.27272727,   0.00000000], 0.00826446],  # 2
    [[ -0.45454545,  -0.18181818,   0.00000000], 0.00826446],  # 3
    [[ -0.45454545,  -0.09090909,   0.00000000], 0.00826446],  # 4
    [[ -0.45454545,   0.00000000,   0.00000000], 0.00826446],  # 5
    [[ -0.45454545,   0.09090909,   0.00000000], 0.00826446],  # 6
    [[ -0.45454545,   0.18181818,   0.00000000], 0.00826446],  # 7
    [[ -0.45454545,   0.27272727,   0.00000000], 0.00826446],  # 8
    [[ -0.45454545,   0.36363636,   0.00000000], 0.00826446],  # 9
    # ...
    [[  0.45454545,   0.45454545,   0.00000000], 0.00826446]]  # 120

plane wave coefficients: 8581
cutoff: 600.0 eV

spin-components: 4  # (non-collinear spins)
bands: 42
valence electrons: 29.0
spin-degeneracy: 1
dtype: complex128

memory:
    wave functions: 1_389_459_456  # bytes  (115_788_288 per core)

parallelization:
    kpt:    12
    domain: 1
    band:   1

density:
  components: 4
  grid points: [24 24 98]
  charge: 0.0  # |e|

potential:
  grid points: [24 24 98]

species:
  Mn:
    name: Manganese
    id: 0d715a8018be061a6e9ea6f2d364ac92
    Z: 25.0
    valence: 15
    core: 10
    charge: 0.0
    file: /zhome/86/d/1666/PAW/gpaw-setups-0.9.20000/Mn.LDA.gz
    compensation charges: {type: gauss,
                           rc: 0.38,
                           lmax: 2}
    cutoffs: {filter: 2.14,
              core: 0.86}
    valence states:
      #              energy  rcut
      - 3s(2.00)   -85.387   1.275
      - 4s(2.00)    -5.282   1.275
      - 3p(6.00)   -54.493   1.281
      - 4p(0.00)    -1.471   1.281
      - 3d(5.00)    -7.009   1.138
      -  d          20.203   1.138
  
    # Using partial waves for Mn as LCAO basis

  I:
    name: Iodine
    id: b559721c0c096a7b4c8fc0e0f4de5cf4
    Z: 53.0
    valence: 7
    core: 46
    charge: 0.0
    file: /zhome/86/d/1666/PAW/gpaw-setups-0.9.20000/I.LDA.gz
    compensation charges: {type: gauss,
                           rc: 0.37,
                           lmax: 2}
    cutoffs: {filter: 2.06,
              core: 2.90}
    valence states:
      #              energy  rcut
      - 5s(2.00)   -17.626   1.164
      - 5p(5.00)    -7.241   1.164
      -  s           9.585   1.164
      -  p          19.970   1.164
      -  d           0.000   1.164
  
    # Using partial waves for I as LCAO basis

Reference energy: -418222.442431  # eV

eigensolver:
  name: 'Davidson'
  niter: 2
  converge_bands: 'occupied'
Density mixing:
  Method: sum
  Backend: pulay
  Linear mixing parameter: 0.05
  old densities: 5
  Damping of long wavelength oscillations: 100
occupation numbers:
  Fermi-Dirac:
    width: 0.1000  # eV
  

poisson solver:
  ecut: 4800.0  # eV

xc functional:
  name: None

convergence criteria:
- Maximum [total energy] change in last 3 cyles: 0.0005 eV / valence electron
- Maximum integral of absolute [dens]ity change: 0.0001 electrons / valence electron
- Maximum integral of absolute [eigenst]ate change: 4e-08 eV^2 / valence electron
maximum number of iterations: 333

#      iter     time        total  log10-change:
#                          energy   eigst   dens
# iter:   1 00:31:49   -14.757322                  +1.0,+0.0,+0.0
# iter:   2 00:32:08   -13.806503   -0.13  -1.10   +0.9,-0.0,+0.0
# iter:   3 00:32:28   -13.653202   -0.71  -1.38   +1.1,-0.0,+0.0
# iter:   4 00:32:48   -13.860812   -0.95  -1.55   +1.4,-0.0,+0.0
# iter:   5 00:33:08   -13.938996   -1.49  -1.65   +1.7,-0.0,+0.0
# iter:   6 00:33:28   -14.150139   -1.69  -1.62   +1.9,-0.0,+0.0
# iter:   7 00:33:48   -14.247106   -2.01  -1.49   +2.1,-0.0,+0.0
# iter:   8 00:34:08   -14.513128   -0.94  -1.46   +2.8,+0.0,+0.0
# iter:   9 00:34:28   -14.524723   -2.36  -1.91   +2.7,+0.0,+0.0
# iter:  10 00:34:48   -14.631498   -1.93  -1.71   +3.0,+0.0,+0.0
# iter:  11 00:35:08   -14.723696   -2.54  -1.98   +3.1,+0.0,+0.0
# iter:  12 00:35:28   -15.036084   -2.70  -2.02   +3.5,+0.0,+0.0
# iter:  13 00:35:48   -15.181615   -1.86  -1.85   +4.1,+0.0,+0.0
# iter:  14 00:36:07   -15.181108   -2.80  -2.28   +4.0,+0.0,+0.0
# iter:  15 00:36:27   -15.075054   -2.64  -2.28   +3.5,+0.0,+0.0
# iter:  16 00:36:48   -15.173489   -2.57  -1.88   +4.0,+0.0,+0.0
# iter:  17 00:37:07   -15.172715   -2.88  -2.32   +4.1,+0.0,+0.0
# iter:  18 00:37:27   -15.171393c  -3.50  -2.36   +4.1,+0.0,+0.0
# iter:  19 00:37:47   -15.186591   -2.55  -2.37   +4.1,+0.0,+0.0
# iter:  20 00:38:07   -15.179407   -3.43  -2.47   +4.1,+0.0,+0.0
# iter:  21 00:38:26   -15.181234c  -4.28  -2.63   +4.1,+0.0,+0.0
# iter:  22 00:38:46   -15.187580c  -3.84  -2.64   +4.2,+0.0,+0.0
# iter:  23 00:39:05   -15.196733   -2.69  -2.68   +4.3,+0.0,+0.0
# iter:  24 00:39:25   -15.188477c  -3.85  -2.49   +4.3,+0.0,+0.0
# iter:  25 00:39:44   -15.186736c  -3.59  -2.80   +4.3,+0.0,+0.0
# iter:  26 00:40:04   -15.188171c  -4.40  -3.00   +4.3,+0.0,+0.0
# iter:  27 00:40:23   -15.187473c  -4.22  -3.16   +4.3,+0.0,+0.0
# iter:  28 00:40:43   -15.187446c  -4.89  -3.62   +4.3,+0.0,+0.0
# iter:  29 00:41:02   -15.187496c  -5.30  -3.65   +4.3,+0.0,+0.0
# iter:  30 00:41:21   -15.187526c  -5.15  -3.67   +4.3,+0.0,+0.0
# iter:  31 00:41:41   -15.187703c  -4.55  -3.73   +4.3,+0.0,+0.0
# iter:  32 00:42:00   -15.187557c  -5.14  -3.56   +4.3,+0.0,+0.0
# iter:  33 00:42:20   -15.187538c  -5.48  -4.11c  +4.3,+0.0,+0.0
# iter:  34 00:42:39   -15.187541c  -6.01  -4.40c  +4.3,+0.0,+0.0
# iter:  35 00:42:58   -15.187552c  -6.08  -4.44c  +4.3,+0.0,+0.0
# iter:  36 00:43:18   -15.187544c  -6.16  -4.31c  +4.3,+0.0,+0.0
# iter:  37 00:43:38   -15.187543c  -6.37  -4.69c  +4.3,+0.0,+0.0
# iter:  38 00:43:57   -15.187545c  -6.51  -4.64c  +4.3,+0.0,+0.0
# iter:  39 00:44:16   -15.187542c  -6.64  -4.77c  +4.3,+0.0,+0.0
# iter:  40 00:44:36   -15.187541c  -6.80  -5.10c  +4.3,+0.0,+0.0
# iter:  41 00:44:55   -15.187539c  -6.93  -5.24c  +4.3,+0.0,+0.0
# iter:  42 00:45:15   -15.187541c  -7.02  -5.06c  +4.3,+0.0,+0.0
# iter:  43 00:45:34   -15.187541c  -7.18  -5.59c  +4.3,+0.0,+0.0
# iter:  44 00:45:53   -15.187540c  -7.25  -5.60c  +4.3,+0.0,+0.0
# iter:  45 00:46:13   -15.187541c  -7.40  -5.25c  +4.3,+0.0,+0.0
# iter:  46 00:46:32   -15.187541c  -7.52c -5.97c  +4.3,+0.0,+0.0
scf_steps: 46
energies:  # eV
  coulomb:         -17.414405
  zero:              0.089557
  xc:              -18.391455
  external:          0.000000
  kinetic:          20.530111
  spinorbit:         0.000000
  entropy:          -0.002699
  total:           -15.188891
  extrapolated:    -15.187541

dipole moment: [-4.549774, -8.550954, -10.424143]  # |e|*Ang

total magnetic moment: [4.301602, 0.000666, 0.000000]

local magnetic moments: [
  [ 4.255252,  0.000000,  0.000000],  # Mn 0
  [-0.022850, -0.000000,  0.000000],  # I  1
  [ 0.022503, -0.003968,  0.000000]]  # I  2


Fermi level: -1.514 eV

kpt = [-0.455, -0.455, 0.000], weight = 0.008:
  Band      eig [eV]   occ [0-1]
     0       -82.403       1.000
   ...
    21        -4.482       1.000
    22        -4.321       1.000
    23        -4.195       1.000
    24        -4.090       1.000
    25        -3.797       1.000
    26        -3.710       1.000
    27        -2.470       1.000
    28        -2.266       0.999
    29        -0.746       0.000
    30        -0.618       0.000
    31        -0.572       0.000
    32         0.131       0.000
    33         0.314       0.000
    34         1.730       0.000
    35         2.420       0.000
    36         3.514       0.000
   ...
    41         4.734       0.000

kpt = [-0.455, -0.364, 0.000], weight = 0.008:
  Band      eig [eV]   occ [0-1]
     0       -82.403       1.000
   ...
    21        -4.465       1.000
    22        -4.191       1.000
    23        -4.158       1.000
    24        -3.986       1.000
    25        -3.698       1.000
    26        -3.646       1.000
    27        -2.536       1.000
    28        -2.194       0.999
    29        -0.754       0.000
    30        -0.649       0.000
    31        -0.545       0.000
    32         0.116       0.000
    33         0.307       0.000
    34         1.580       0.000
    35         2.279       0.000
    36         3.095       0.000
   ...
    41         4.703       0.000

kpt = [-0.455, -0.273, 0.000], weight = 0.008:
  Band      eig [eV]   occ [0-1]
     0       -82.403       1.000
   ...
    21        -4.214       1.000
    22        -4.176       1.000
    23        -4.008       1.000
    24        -3.845       1.000
    25        -3.592       1.000
    26        -3.532       1.000
    27        -2.657       1.000
    28        -2.103       0.997
    29        -0.795       0.001
    30        -0.589       0.000
    31        -0.567       0.000
    32         0.021       0.000
    33         0.335       0.000
    34         1.618       0.000
    35         2.353       0.000
    36         2.926       0.000
   ...
    41         4.761       0.000
(only showing first 3 out of 121 k-points)

Gap: 0.987 eV
Transition (v -> c):
  (s=0, k=60, n=28, [0.00, 0.00, 0.00]) -> (s=0, k=93, n=29, [0.27, 0.00, 0.00])
# Writing to gsq-11.gpw (mode='')

---

timing:  # [seconds]
  Total: 914.770  # ━━━━━━━━━━━━━━━━━━━━━━━━━━━━━━━━━━━━━━━━━━━━━━━━━━━━━━━━━
  Init:   12.494  # ━
  SCF:   901.828  # ━━━━━━━━━━━━━━━━━━━━━━━━━━━━━━━━━━━━━━━━━━━━━━━━━━━━━━━━

Max RSS: 668.938  # MiB
