#  __  _  _
# | _ |_)|_||  |
# |__||  | ||/\| - 24.1.0

User:   s194113@n-62-28-29
Date:   Mon Apr 22 23:10:00 2024
Arch:   x86_64
Pid:    26782
CWD:    /zhome/87/8/147075/10302/10302_NM/MnI2/V_con
Python: 3.8.5
gpaw:   /zhome/87/8/147075/venv-name/gpaw/gpaw (10808453a8)
_gpaw:  /zhome/87/8/147075/venv-name/gpaw/
        _gpaw.cpython-38-x86_64-linux-gnu.so (10808453a8)
ase:    /zhome/87/8/147075/venv-name/ase/ase (version 3.23.0b1-c36115a2db)
numpy:  /zhome/87/8/147075/venv-name/lib/python3.8/site-packages/numpy (version 1.24.4)
scipy:  /zhome/87/8/147075/venv-name/lib/python3.8/site-packages/scipy (version 1.10.1)
libxc:  4.3.4
units:  Angstrom and eV
cores: 12
OpenMP: False
OMP_NUM_THREADS: 1

---
input parameters:
  kpts: 
    density: 6.0
    gamma: True
  magmoms: [[1, 0, 0], [0, 0, 0], [0, 0, 0]]
  mixer: 
    backend: 'pulay'
    beta: 0.05
    method: 'sum'
    nmaxold: 5
    weight: 100
  mode: 
    name: 'pw'
    ecut: 600
    qspiral: array([0.25, 0.  , 0.  ])
  parallel: 
    kpt: None
    domain: 1
    band: 1
    order: 'kdb'
    stridebands: False
    augment_grids: False
    sl_auto: False
    sl_default: None
    sl_diagonalize: None
    sl_inverse_cholesky: None
    sl_lcao: None
    sl_lrtddft: None
    use_elpa: False
    elpasolver: '2stage'
    buffer_size: None
    gpu: False
  symmetry: 
    point_group: False
    time_reversal: False
  xc: 
    name: 'LDA'

#                        
#                        
#                        
#                        
#                        
#              I         
#                        
#        Mn              
#          I             
#                        
#                        
#                        
#                        
#                        

atoms: [  # symbols, positions [Ang] and initial magnetic moments
  [ Mn, [   0.000000,    0.000000,    8.513573], [ 1.000,  0.000,  0.000]], # 0
  [  I, [   2.083000,    1.202621,   10.027147], [ 0.000,  0.000,  0.000]], # 1
  [  I, [   0.000000,    2.405241,    7.000000], [ 0.000,  0.000,  0.000]]] # 2

cell: [  # Ang
#     x            y            z
  [   4.166000,    0.000000,    0.000000],
  [  -2.083000,    3.607862,    0.000000],
  [   0.000000,   -0.000000,   17.027147]]

periodic: [True      , True      , False     ]
lengths:  [  4.166000,   4.166000,  17.027147]  # Ang
angles:   [ 90.000000,  90.000000, 120.000000]

symmetry:
  number of symmetries: 1
  rotations: [
    [[ 1,  0,  0], [ 0,  1,  0], [ 0,  0,  1]]]

bz sampling:
  number of bz points: 121
  number of ibz points: 121
  monkhorst-pack size: [11, 11, 1]
  monkhorst-pack shift: [0, 0, 0]
  points and weights: [
    [[ -0.45454545,  -0.45454545,   0.00000000], 0.00826446],  # 0
    [[ -0.45454545,  -0.36363636,   0.00000000], 0.00826446],  # 1
    [[ -0.45454545,  -0.27272727,   0.00000000], 0.00826446],  # 2
    [[ -0.45454545,  -0.18181818,   0.00000000], 0.00826446],  # 3
    [[ -0.45454545,  -0.09090909,   0.00000000], 0.00826446],  # 4
    [[ -0.45454545,   0.00000000,   0.00000000], 0.00826446],  # 5
    [[ -0.45454545,   0.09090909,   0.00000000], 0.00826446],  # 6
    [[ -0.45454545,   0.18181818,   0.00000000], 0.00826446],  # 7
    [[ -0.45454545,   0.27272727,   0.00000000], 0.00826446],  # 8
    [[ -0.45454545,   0.36363636,   0.00000000], 0.00826446],  # 9
    # ...
    [[  0.45454545,   0.45454545,   0.00000000], 0.00826446]]  # 120

plane wave coefficients: 8581
cutoff: 600.0 eV

spin-components: 4  # (non-collinear spins)
bands: 42
valence electrons: 29.0
spin-degeneracy: 1
dtype: complex128

memory:
    wave functions: 1_389_459_456  # bytes  (115_788_288 per core)

parallelization:
    kpt:    12
    domain: 1
    band:   1

density:
  components: 4
  grid points: [24 24 98]
  charge: 0.0  # |e|

potential:
  grid points: [24 24 98]

species:
  Mn:
    name: Manganese
    id: 0d715a8018be061a6e9ea6f2d364ac92
    Z: 25.0
    valence: 15
    core: 10
    charge: 0.0
    file: /zhome/86/d/1666/PAW/gpaw-setups-0.9.20000/Mn.LDA.gz
    compensation charges: {type: gauss,
                           rc: 0.38,
                           lmax: 2}
    cutoffs: {filter: 2.14,
              core: 0.86}
    valence states:
      #              energy  rcut
      - 3s(2.00)   -85.387   1.275
      - 4s(2.00)    -5.282   1.275
      - 3p(6.00)   -54.493   1.281
      - 4p(0.00)    -1.471   1.281
      - 3d(5.00)    -7.009   1.138
      -  d          20.203   1.138
  
    # Using partial waves for Mn as LCAO basis

  I:
    name: Iodine
    id: b559721c0c096a7b4c8fc0e0f4de5cf4
    Z: 53.0
    valence: 7
    core: 46
    charge: 0.0
    file: /zhome/86/d/1666/PAW/gpaw-setups-0.9.20000/I.LDA.gz
    compensation charges: {type: gauss,
                           rc: 0.37,
                           lmax: 2}
    cutoffs: {filter: 2.06,
              core: 2.90}
    valence states:
      #              energy  rcut
      - 5s(2.00)   -17.626   1.164
      - 5p(5.00)    -7.241   1.164
      -  s           9.585   1.164
      -  p          19.970   1.164
      -  d           0.000   1.164
  
    # Using partial waves for I as LCAO basis

Reference energy: -418222.442431  # eV

eigensolver:
  name: 'Davidson'
  niter: 2
  converge_bands: 'occupied'
Density mixing:
  Method: sum
  Backend: pulay
  Linear mixing parameter: 0.05
  old densities: 5
  Damping of long wavelength oscillations: 100
occupation numbers:
  Fermi-Dirac:
    width: 0.1000  # eV
  

poisson solver:
  ecut: 4800.0  # eV

xc functional:
  name: None

convergence criteria:
- Maximum [total energy] change in last 3 cyles: 0.0005 eV / valence electron
- Maximum integral of absolute [dens]ity change: 0.0001 electrons / valence electron
- Maximum integral of absolute [eigenst]ate change: 4e-08 eV^2 / valence electron
maximum number of iterations: 333

#      iter     time        total  log10-change:
#                          energy   eigst   dens
# iter:   1 23:10:31   -15.059112                  +1.0,+0.0,+0.0
# iter:   2 23:10:51   -13.817367   -0.42  -1.10   +0.9,-0.0,+0.0
# iter:   3 23:11:11   -13.624353   -0.88  -1.38   +1.0,-0.0,-0.0
# iter:   4 23:11:31   -13.805692   -1.02  -1.54   +1.3,-0.0,+0.0
# iter:   5 23:11:51   -13.854714   -1.71  -1.64   +1.8,-0.0,-0.0
# iter:   6 23:12:11   -13.993298   -1.95  -1.62   +2.1,-0.0,-0.0
# iter:   7 23:12:30   -14.124118   -2.12  -1.52   +2.4,-0.0,-0.0
# iter:   8 23:12:50   -14.638648   -1.06  -1.50   +3.3,+0.0,-0.0
# iter:   9 23:13:09   -14.664950   -2.31  -1.83   +3.4,+0.0,+0.0
# iter:  10 23:13:29   -14.078198   -2.37  -1.83   +2.8,-0.0,+0.0
# iter:  11 23:13:48   -14.779229   -2.08  -1.86   +3.3,+0.0,-0.0
# iter:  12 23:14:08   -15.193724   -2.07  -1.93   +4.6,+0.0,-0.0
# iter:  13 23:14:27   -15.142281   -2.77  -2.11   +4.3,+0.0,-0.0
# iter:  14 23:14:47   -15.158397   -3.39  -1.94   +4.4,+0.0,+0.0
# iter:  15 23:15:06   -15.174425   -2.08  -1.99   +4.7,+0.0,+0.0
# iter:  16 23:15:26   -15.172767   -3.38  -2.80   +4.6,+0.0,+0.0
# iter:  17 23:15:46   -15.176469c  -3.42  -2.75   +4.7,+0.0,+0.0
# iter:  18 23:16:05   -15.176475c  -4.06  -2.76   +4.7,+0.0,+0.0
# iter:  19 23:16:24   -15.176095c  -4.31  -2.75   +4.7,+0.0,+0.0
# iter:  20 23:16:44   -15.176041c  -4.52  -2.73   +4.7,+0.0,+0.0
# iter:  21 23:17:03   -15.176817c  -3.66  -2.78   +4.7,+0.0,+0.0
# iter:  22 23:17:23   -15.176188c  -4.40  -3.19   +4.7,+0.0,+0.0
# iter:  23 23:17:42   -15.176250c  -4.89  -3.36   +4.7,+0.0,-0.0
# iter:  24 23:18:02   -15.176141c  -4.89  -3.43   +4.7,+0.0,+0.0
# iter:  25 23:18:22   -15.176097c  -4.95  -3.53   +4.7,+0.0,-0.0
# iter:  26 23:18:41   -15.176090c  -5.32  -3.63   +4.7,+0.0,+0.0
# iter:  27 23:19:01   -15.176098c  -5.55  -3.80   +4.7,+0.0,+0.0
# iter:  28 23:19:20   -15.176099c  -5.71  -3.93   +4.7,+0.0,+0.0
# iter:  29 23:19:40   -15.176109c  -5.62  -3.97   +4.7,+0.0,+0.0
# iter:  30 23:19:59   -15.176102c  -6.03  -4.12c  +4.7,+0.0,+0.0
# iter:  31 23:20:19   -15.176100c  -6.21  -4.23c  +4.7,+0.0,+0.0
# iter:  32 23:20:39   -15.176100c  -6.37  -4.27c  +4.7,+0.0,+0.0
# iter:  33 23:20:58   -15.176093c  -6.45  -4.32c  +4.7,+0.0,+0.0
# iter:  34 23:21:18   -15.176096c  -6.43  -4.29c  +4.7,+0.0,+0.0
# iter:  35 23:21:37   -15.176100c  -6.50  -4.68c  +4.7,+0.0,+0.0
# iter:  36 23:21:57   -15.176096c  -6.85  -4.61c  +4.7,+0.0,+0.0
# iter:  37 23:22:16   -15.176096c  -7.03  -5.16c  +4.7,+0.0,+0.0
# iter:  38 23:22:36   -15.176096c  -7.15  -5.18c  +4.7,+0.0,+0.0
# iter:  39 23:22:55   -15.176095c  -7.22  -5.25c  +4.7,+0.0,+0.0
# iter:  40 23:23:15   -15.176095c  -7.41c -5.11c  +4.7,+0.0,+0.0
scf_steps: 40
energies:  # eV
  coulomb:         -17.780075
  zero:              0.088188
  xc:              -18.455167
  external:          0.000000
  kinetic:          20.972326
  spinorbit:         0.000000
  entropy:          -0.002733
  total:           -15.177462
  extrapolated:    -15.176095

dipole moment: [-5.286899, -9.441263, -14.157742]  # |e|*Ang

total magnetic moment: [4.717110, 0.013910, 0.000000]

local magnetic moments: [
  [ 4.278632, -0.000000,  0.000000],  # Mn 0
  [ 0.028711, -0.055955,  0.000000],  # I  1
  [ 0.055955, -0.028711,  0.000000]]  # I  2


Fermi level: -1.557 eV

kpt = [-0.455, -0.455, 0.000], weight = 0.008:
  Band      eig [eV]   occ [0-1]
     0       -82.442       1.000
   ...
    21        -4.428       1.000
    22        -4.310       1.000
    23        -4.220       1.000
    24        -4.170       1.000
    25        -3.897       1.000
    26        -3.841       1.000
    27        -2.336       1.000
    28        -2.227       0.999
    29        -0.945       0.002
    30        -0.617       0.000
    31        -0.576       0.000
    32         0.248       0.000
    33         0.358       0.000
    34         1.201       0.000
    35         2.261       0.000
    36         2.727       0.000
   ...
    41         4.717       0.000

kpt = [-0.455, -0.364, 0.000], weight = 0.008:
  Band      eig [eV]   occ [0-1]
     0       -82.442       1.000
   ...
    21        -4.502       1.000
    22        -4.295       1.000
    23        -4.191       1.000
    24        -4.035       1.000
    25        -3.895       1.000
    26        -3.752       1.000
    27        -2.419       1.000
    28        -2.279       0.999
    29        -0.856       0.001
    30        -0.621       0.000
    31        -0.554       0.000
    32         0.221       0.000
    33         0.261       0.000
    34         1.374       0.000
    35         2.381       0.000
    36         2.904       0.000
   ...
    41         4.921       0.000

kpt = [-0.455, -0.273, 0.000], weight = 0.008:
  Band      eig [eV]   occ [0-1]
     0       -82.442       1.000
   ...
    21        -4.516       1.000
    22        -4.290       1.000
    23        -4.151       1.000
    24        -3.994       1.000
    25        -3.828       1.000
    26        -3.662       1.000
    27        -2.524       1.000
    28        -2.312       0.999
    29        -0.745       0.000
    30        -0.623       0.000
    31        -0.560       0.000
    32         0.097       0.000
    33         0.251       0.000
    34         1.799       0.000
    35         2.484       0.000
    36         3.395       0.000
   ...
    41         4.880       0.000
(only showing first 3 out of 121 k-points)

Gap: 0.827 eV
Transition (v -> c):
  (s=0, k=60, n=28, [0.00, 0.00, 0.00]) -> (s=0, k=5, n=29, [-0.45, 0.00, 0.00])
# Writing to gsq-05.gpw (mode='')

---

timing:  # [seconds]
  Total: 795.033  # ━━━━━━━━━━━━━━━━━━━━━━━━━━━━━━━━━━━━━━━━━━━━━━━━━━━━━━━━━
  Init:   12.629  # ━
  SCF:   781.907  # ━━━━━━━━━━━━━━━━━━━━━━━━━━━━━━━━━━━━━━━━━━━━━━━━━━━━━━━━

Max RSS: 543.156  # MiB
