#  __  _  _
# | _ |_)|_||  |
# |__||  | ||/\| - 24.1.0

User:   s194113@n-62-28-29
Date:   Mon Apr 22 22:30:30 2024
Arch:   x86_64
Pid:    26782
CWD:    /zhome/87/8/147075/10302/10302_NM/MnI2/V_con
Python: 3.8.5
gpaw:   /zhome/87/8/147075/venv-name/gpaw/gpaw (10808453a8)
_gpaw:  /zhome/87/8/147075/venv-name/gpaw/
        _gpaw.cpython-38-x86_64-linux-gnu.so (10808453a8)
ase:    /zhome/87/8/147075/venv-name/ase/ase (version 3.23.0b1-c36115a2db)
numpy:  /zhome/87/8/147075/venv-name/lib/python3.8/site-packages/numpy (version 1.24.4)
scipy:  /zhome/87/8/147075/venv-name/lib/python3.8/site-packages/scipy (version 1.10.1)
libxc:  4.3.4
units:  Angstrom and eV
cores: 12
OpenMP: False
OMP_NUM_THREADS: 1

---
input parameters:
  kpts: 
    density: 6.0
    gamma: True
  magmoms: [[1, 0, 0], [0, 0, 0], [0, 0, 0]]
  mixer: 
    backend: 'pulay'
    beta: 0.05
    method: 'sum'
    nmaxold: 5
    weight: 100
  mode: 
    name: 'pw'
    ecut: 600
    qspiral: array([0.1, 0. , 0. ])
  parallel: 
    kpt: None
    domain: 1
    band: 1
    order: 'kdb'
    stridebands: False
    augment_grids: False
    sl_auto: False
    sl_default: None
    sl_diagonalize: None
    sl_inverse_cholesky: None
    sl_lcao: None
    sl_lrtddft: None
    use_elpa: False
    elpasolver: '2stage'
    buffer_size: None
    gpu: False
  symmetry: 
    point_group: False
    time_reversal: False
  xc: 
    name: 'LDA'

#                        
#                        
#                        
#                        
#                        
#              I         
#                        
#        Mn              
#          I             
#                        
#                        
#                        
#                        
#                        

atoms: [  # symbols, positions [Ang] and initial magnetic moments
  [ Mn, [   0.000000,    0.000000,    8.513573], [ 1.000,  0.000,  0.000]], # 0
  [  I, [   2.083000,    1.202621,   10.027147], [ 0.000,  0.000,  0.000]], # 1
  [  I, [   0.000000,    2.405241,    7.000000], [ 0.000,  0.000,  0.000]]] # 2

cell: [  # Ang
#     x            y            z
  [   4.166000,    0.000000,    0.000000],
  [  -2.083000,    3.607862,    0.000000],
  [   0.000000,   -0.000000,   17.027147]]

periodic: [True      , True      , False     ]
lengths:  [  4.166000,   4.166000,  17.027147]  # Ang
angles:   [ 90.000000,  90.000000, 120.000000]

symmetry:
  number of symmetries: 1
  rotations: [
    [[ 1,  0,  0], [ 0,  1,  0], [ 0,  0,  1]]]

bz sampling:
  number of bz points: 121
  number of ibz points: 121
  monkhorst-pack size: [11, 11, 1]
  monkhorst-pack shift: [0, 0, 0]
  points and weights: [
    [[ -0.45454545,  -0.45454545,   0.00000000], 0.00826446],  # 0
    [[ -0.45454545,  -0.36363636,   0.00000000], 0.00826446],  # 1
    [[ -0.45454545,  -0.27272727,   0.00000000], 0.00826446],  # 2
    [[ -0.45454545,  -0.18181818,   0.00000000], 0.00826446],  # 3
    [[ -0.45454545,  -0.09090909,   0.00000000], 0.00826446],  # 4
    [[ -0.45454545,   0.00000000,   0.00000000], 0.00826446],  # 5
    [[ -0.45454545,   0.09090909,   0.00000000], 0.00826446],  # 6
    [[ -0.45454545,   0.18181818,   0.00000000], 0.00826446],  # 7
    [[ -0.45454545,   0.27272727,   0.00000000], 0.00826446],  # 8
    [[ -0.45454545,   0.36363636,   0.00000000], 0.00826446],  # 9
    # ...
    [[  0.45454545,   0.45454545,   0.00000000], 0.00826446]]  # 120

plane wave coefficients: 8581
cutoff: 600.0 eV

spin-components: 4  # (non-collinear spins)
bands: 42
valence electrons: 29.0
spin-degeneracy: 1
dtype: complex128

memory:
    wave functions: 1_389_459_456  # bytes  (115_788_288 per core)

parallelization:
    kpt:    12
    domain: 1
    band:   1

density:
  components: 4
  grid points: [24 24 98]
  charge: 0.0  # |e|

potential:
  grid points: [24 24 98]

species:
  Mn:
    name: Manganese
    id: 0d715a8018be061a6e9ea6f2d364ac92
    Z: 25.0
    valence: 15
    core: 10
    charge: 0.0
    file: /zhome/86/d/1666/PAW/gpaw-setups-0.9.20000/Mn.LDA.gz
    compensation charges: {type: gauss,
                           rc: 0.38,
                           lmax: 2}
    cutoffs: {filter: 2.14,
              core: 0.86}
    valence states:
      #              energy  rcut
      - 3s(2.00)   -85.387   1.275
      - 4s(2.00)    -5.282   1.275
      - 3p(6.00)   -54.493   1.281
      - 4p(0.00)    -1.471   1.281
      - 3d(5.00)    -7.009   1.138
      -  d          20.203   1.138
  
    # Using partial waves for Mn as LCAO basis

  I:
    name: Iodine
    id: b559721c0c096a7b4c8fc0e0f4de5cf4
    Z: 53.0
    valence: 7
    core: 46
    charge: 0.0
    file: /zhome/86/d/1666/PAW/gpaw-setups-0.9.20000/I.LDA.gz
    compensation charges: {type: gauss,
                           rc: 0.37,
                           lmax: 2}
    cutoffs: {filter: 2.06,
              core: 2.90}
    valence states:
      #              energy  rcut
      - 5s(2.00)   -17.626   1.164
      - 5p(5.00)    -7.241   1.164
      -  s           9.585   1.164
      -  p          19.970   1.164
      -  d           0.000   1.164
  
    # Using partial waves for I as LCAO basis

Reference energy: -418222.442431  # eV

eigensolver:
  name: 'Davidson'
  niter: 2
  converge_bands: 'occupied'
Density mixing:
  Method: sum
  Backend: pulay
  Linear mixing parameter: 0.05
  old densities: 5
  Damping of long wavelength oscillations: 100
occupation numbers:
  Fermi-Dirac:
    width: 0.1000  # eV
  

poisson solver:
  ecut: 4800.0  # eV

xc functional:
  name: None

convergence criteria:
- Maximum [total energy] change in last 3 cyles: 0.0005 eV / valence electron
- Maximum integral of absolute [dens]ity change: 0.0001 electrons / valence electron
- Maximum integral of absolute [eigenst]ate change: 4e-08 eV^2 / valence electron
maximum number of iterations: 333

#      iter     time        total  log10-change:
#                          energy   eigst   dens
# iter:   1 22:31:01   -15.148243                  +1.0,+0.0,+0.0
# iter:   2 22:31:21   -13.820434   -0.55  -1.10   +0.9,-0.0,+0.0
# iter:   3 22:31:40   -13.613676   -0.94  -1.37   +1.0,-0.0,-0.0
# iter:   4 22:32:00   -13.769282   -1.05  -1.53   +1.3,-0.0,+0.0
# iter:   5 22:32:20   -13.799938   -1.78  -1.65   +1.8,-0.0,+0.0
# iter:   6 22:32:39   -13.884596   -2.06  -1.64   +2.1,-0.0,+0.0
# iter:   7 22:32:59   -14.024692   -1.80  -1.57   +2.5,-0.0,+0.0
# iter:   8 22:33:18   -14.355011   -1.51  -1.58   +3.1,+0.0,+0.0
# iter:   9 22:33:38   -13.906009   -2.23  -1.68   +2.8,-0.0,+0.0
# iter:  10 22:33:58   -14.856088   -1.72  -1.57   +3.8,+0.0,+0.0
# iter:  11 22:34:17   -15.097170   -1.55  -1.80   +4.6,+0.0,+0.0
# iter:  12 22:34:37   -15.114265   -2.51  -2.10   +4.6,+0.0,-0.0
# iter:  13 22:34:56   -15.235385   -1.88  -2.08   +4.8,+0.0,-0.0
# iter:  14 22:35:16   -15.237628   -2.88  -1.85   +4.9,+0.0,-0.0
# iter:  15 22:35:35   -15.100511   -2.38  -1.91   +4.4,+0.0,-0.0
# iter:  16 22:35:55   -15.255308   -2.33  -2.02   +4.6,+0.0,-0.0
# iter:  17 22:36:15   -15.150684   -2.14  -1.84   +4.7,+0.0,-0.0
# iter:  18 22:36:34   -15.157263   -3.45  -2.18   +4.8,+0.0,-0.0
# iter:  19 22:36:54   -15.164839c  -3.04  -2.21   +4.8,+0.0,-0.0
# iter:  20 22:37:13   -15.156360c  -3.02  -2.20   +4.9,+0.0,-0.0
# iter:  21 22:37:33   -15.169368c  -2.64  -2.36   +5.0,+0.0,-0.0
# iter:  22 22:37:52   -15.171429   -2.10  -2.42   +4.7,+0.0,-0.0
# iter:  23 22:38:12   -15.153290   -2.71  -2.20   +4.9,+0.0,-0.0
# iter:  24 22:38:32   -15.155954   -3.75  -2.91   +4.9,+0.0,-0.0
# iter:  25 22:38:51   -15.153550c  -3.86  -2.97   +4.9,+0.0,-0.0
# iter:  26 22:39:11   -15.154703c  -4.60  -3.06   +4.9,+0.0,-0.0
# iter:  27 22:39:31   -15.156129c  -4.20  -3.29   +4.9,+0.0,-0.0
# iter:  28 22:39:50   -15.155992c  -5.11  -3.07   +4.9,+0.0,-0.0
# iter:  29 22:40:09   -15.156216c  -3.60  -3.10   +4.9,+0.0,-0.0
# iter:  30 22:40:29   -15.155817c  -4.36  -2.97   +4.9,+0.0,-0.0
# iter:  31 22:40:48   -15.155846c  -5.31  -3.89   +4.9,+0.0,-0.0
# iter:  32 22:41:08   -15.155846c  -5.87  -4.01c  +4.9,+0.0,-0.0
# iter:  33 22:41:27   -15.155881c  -5.47  -4.03c  +4.9,+0.0,-0.0
# iter:  34 22:41:47   -15.155876c  -6.14  -4.05c  +4.9,+0.0,-0.0
# iter:  35 22:42:07   -15.155850c  -6.20  -4.12c  +4.9,+0.0,-0.0
# iter:  36 22:42:26   -15.155863c  -6.66  -4.39c  +4.9,+0.0,-0.0
# iter:  37 22:42:45   -15.155852c  -6.59  -4.38c  +4.9,+0.0,-0.0
# iter:  38 22:43:05   -15.155852c  -7.12  -5.20c  +4.9,+0.0,-0.0
# iter:  39 22:43:24   -15.155856c  -7.02  -5.19c  +4.9,+0.0,-0.0
# iter:  40 22:43:44   -15.155854c  -7.47c -4.92c  +4.9,+0.0,-0.0
scf_steps: 40
energies:  # eV
  coulomb:         -18.353752
  zero:              0.087181
  xc:              -18.549499
  external:          0.000000
  kinetic:          21.662356
  spinorbit:         0.000000
  entropy:          -0.004281
  total:           -15.157995
  extrapolated:    -15.155854

dipole moment: [-5.659348, -9.903993, -16.063886]  # |e|*Ang

total magnetic moment: [4.937697, 0.008971, -0.000000]

local magnetic moments: [
  [ 4.306741,  0.000000, -0.000000],  # Mn 0
  [ 0.081659, -0.036594,  0.000000],  # I  1
  [ 0.087573, -0.018393,  0.000000]]  # I  2


Fermi level: -1.567 eV

kpt = [-0.455, -0.455, 0.000], weight = 0.008:
  Band      eig [eV]   occ [0-1]
     0       -82.489       1.000
   ...
    21        -4.383       1.000
    22        -4.291       1.000
    23        -4.253       1.000
    24        -4.159       1.000
    25        -4.082       1.000
    26        -3.953       1.000
    27        -2.271       0.999
    28        -2.212       0.998
    29        -1.035       0.005
    30        -0.633       0.000
    31        -0.594       0.000
    32         0.297       0.000
    33         0.396       0.000
    34         1.030       0.000
    35         1.989       0.000
    36         2.670       0.000
   ...
    41         4.452       0.000

kpt = [-0.455, -0.364, 0.000], weight = 0.008:
  Band      eig [eV]   occ [0-1]
     0       -82.489       1.000
   ...
    21        -4.476       1.000
    22        -4.366       1.000
    23        -4.196       1.000
    24        -4.114       1.000
    25        -3.959       1.000
    26        -3.845       1.000
    27        -2.447       1.000
    28        -2.302       0.999
    29        -0.864       0.001
    30        -0.625       0.000
    31        -0.576       0.000
    32         0.155       0.000
    33         0.325       0.000
    34         1.476       0.000
    35         2.377       0.000
    36         3.311       0.000
   ...
    41         4.698       0.000

kpt = [-0.455, -0.273, 0.000], weight = 0.008:
  Band      eig [eV]   occ [0-1]
     0       -82.489       1.000
   ...
    21        -4.554       1.000
    22        -4.383       1.000
    23        -4.177       1.000
    24        -4.134       1.000
    25        -3.879       1.000
    26        -3.783       1.000
    27        -2.578       1.000
    28        -2.317       0.999
    29        -0.785       0.000
    30        -0.605       0.000
    31        -0.572       0.000
    32         0.078       0.000
    33         0.287       0.000
    34         1.823       0.000
    35         2.636       0.000
    36         3.439       0.000
   ...
    41         4.880       0.000
(only showing first 3 out of 121 k-points)

Gap: 0.772 eV
Transition (v -> c):
  (s=0, k=60,# Writing to gsq-02.gpw (mode='')

 k=115, n=29, [0.45, 0.00, 0.00])
# Writing to gsq-02.gpw (mode='')

---

timing:  # [seconds]
  Total: 794.892  # ━━━━━━━━━━━━━━━━━━━━━━━━━━━━━━━━━━━━━━━━━━━━━━━━━━━━━━━━━
  Init:   12.527  # ━
  SCF:   781.850  # ━━━━━━━━━━━━━━━━━━━━━━━━━━━━━━━━━━━━━━━━━━━━━━━━━━━━━━━━

Max RSS: 480.477  # MiB
