#  __  _  _
# | _ |_)|_||  |
# |__||  | ||/\| - 24.1.0

User:   s194113@n-62-28-29
Date:   Tue Apr 23 03:07:16 2024
Arch:   x86_64
Pid:    26782
CWD:    /zhome/87/8/147075/10302/10302_NM/MnI2/V_con
Python: 3.8.5
gpaw:   /zhome/87/8/147075/venv-name/gpaw/gpaw (10808453a8)
_gpaw:  /zhome/87/8/147075/venv-name/gpaw/
        _gpaw.cpython-38-x86_64-linux-gnu.so (10808453a8)
ase:    /zhome/87/8/147075/venv-name/ase/ase (version 3.23.0b1-c36115a2db)
numpy:  /zhome/87/8/147075/venv-name/lib/python3.8/site-packages/numpy (version 1.24.4)
scipy:  /zhome/87/8/147075/venv-name/lib/python3.8/site-packages/scipy (version 1.10.1)
libxc:  4.3.4
units:  Angstrom and eV
cores: 12
OpenMP: False
OMP_NUM_THREADS: 1

---
input parameters:
  kpts: 
    density: 6.0
    gamma: True
  magmoms: [[1, 0, 0], [0, 0, 0], [0, 0, 0]]
  mixer: 
    backend: 'pulay'
    beta: 0.05
    method: 'sum'
    nmaxold: 5
    weight: 100
  mode: 
    name: 'pw'
    ecut: 600
    qspiral: array([0.33333333, 0.33333333, 0.        ])
  parallel: 
    kpt: None
    domain: 1
    band: 1
    order: 'kdb'
    stridebands: False
    augment_grids: False
    sl_auto: False
    sl_default: None
    sl_diagonalize: None
    sl_inverse_cholesky: None
    sl_lcao: None
    sl_lrtddft: None
    use_elpa: False
    elpasolver: '2stage'
    buffer_size: None
    gpu: False
  symmetry: 
    point_group: False
    time_reversal: False
  xc: 
    name: 'LDA'

#                        
#                        
#                        
#                        
#                        
#              I         
#                        
#        Mn              
#          I             
#                        
#                        
#                        
#                        
#                        

atoms: [  # symbols, positions [Ang] and initial magnetic moments
  [ Mn, [   0.000000,    0.000000,    8.513573], [ 1.000,  0.000,  0.000]], # 0
  [  I, [   2.083000,    1.202621,   10.027147], [ 0.000,  0.000,  0.000]], # 1
  [  I, [   0.000000,    2.405241,    7.000000], [ 0.000,  0.000,  0.000]]] # 2

cell: [  # Ang
#     x            y            z
  [   4.166000,    0.000000,    0.000000],
  [  -2.083000,    3.607862,    0.000000],
  [   0.000000,   -0.000000,   17.027147]]

periodic: [True      , True      , False     ]
lengths:  [  4.166000,   4.166000,  17.027147]  # Ang
angles:   [ 90.000000,  90.000000, 120.000000]

symmetry:
  number of symmetries: 1
  rotations: [
    [[ 1,  0,  0], [ 0,  1,  0], [ 0,  0,  1]]]

bz sampling:
  number of bz points: 121
  number of ibz points: 121
  monkhorst-pack size: [11, 11, 1]
  monkhorst-pack shift: [0, 0, 0]
  points and weights: [
    [[ -0.45454545,  -0.45454545,   0.00000000], 0.00826446],  # 0
    [[ -0.45454545,  -0.36363636,   0.00000000], 0.00826446],  # 1
    [[ -0.45454545,  -0.27272727,   0.00000000], 0.00826446],  # 2
    [[ -0.45454545,  -0.18181818,   0.00000000], 0.00826446],  # 3
    [[ -0.45454545,  -0.09090909,   0.00000000], 0.00826446],  # 4
    [[ -0.45454545,   0.00000000,   0.00000000], 0.00826446],  # 5
    [[ -0.45454545,   0.09090909,   0.00000000], 0.00826446],  # 6
    [[ -0.45454545,   0.18181818,   0.00000000], 0.00826446],  # 7
    [[ -0.45454545,   0.27272727,   0.00000000], 0.00826446],  # 8
    [[ -0.45454545,   0.36363636,   0.00000000], 0.00826446],  # 9
    # ...
    [[  0.45454545,   0.45454545,   0.00000000], 0.00826446]]  # 120

plane wave coefficients: 8581
cutoff: 600.0 eV

spin-components: 4  # (non-collinear spins)
bands: 42
valence electrons: 29.0
spin-degeneracy: 1
dtype: complex128

memory:
    wave functions: 1_389_459_456  # bytes  (115_788_288 per core)

parallelization:
    kpt:    12
    domain: 1
    band:   1

density:
  components: 4
  grid points: [24 24 98]
  charge: 0.0  # |e|

potential:
  grid points: [24 24 98]

species:
  Mn:
    name: Manganese
    id: 0d715a8018be061a6e9ea6f2d364ac92
    Z: 25.0
    valence: 15
    core: 10
    charge: 0.0
    file: /zhome/86/d/1666/PAW/gpaw-setups-0.9.20000/Mn.LDA.gz
    compensation charges: {type: gauss,
                           rc: 0.38,
                           lmax: 2}
    cutoffs: {filter: 2.14,
              core: 0.86}
    valence states:
      #              energy  rcut
      - 3s(2.00)   -85.387   1.275
      - 4s(2.00)    -5.282   1.275
      - 3p(6.00)   -54.493   1.281
      - 4p(0.00)    -1.471   1.281
      - 3d(5.00)    -7.009   1.138
      -  d          20.203   1.138
  
    # Using partial waves for Mn as LCAO basis

  I:
    name: Iodine
    id: b559721c0c096a7b4c8fc0e0f4de5cf4
    Z: 53.0
    valence: 7
    core: 46
    charge: 0.0
    file: /zhome/86/d/1666/PAW/gpaw-setups-0.9.20000/I.LDA.gz
    compensation charges: {type: gauss,
                           rc: 0.37,
                           lmax: 2}
    cutoffs: {filter: 2.06,
              core: 2.90}
    valence states:
      #              energy  rcut
      - 5s(2.00)   -17.626   1.164
      - 5p(5.00)    -7.241   1.164
      -  s           9.585   1.164
      -  p          19.970   1.164
      -  d           0.000   1.164
  
    # Using partial waves for I as LCAO basis

Reference energy: -418222.442431  # eV

eigensolver:
  name: 'Davidson'
  niter: 2
  converge_bands: 'occupied'
Density mixing:
  Method: sum
  Backend: pulay
  Linear mixing parameter: 0.05
  old densities: 5
  Damping of long wavelength oscillations: 100
occupation numbers:
  Fermi-Dirac:
    width: 0.1000  # eV
  

poisson solver:
  ecut: 4800.0  # eV

xc functional:
  name: None

convergence criteria:
- Maximum [total energy] change in last 3 cyles: 0.0005 eV / valence electron
- Maximum integral of absolute [dens]ity change: 0.0001 electrons / valence electron
- Maximum integral of absolute [eigenst]ate change: 4e-08 eV^2 / valence electron
maximum number of iterations: 333

#      iter     time        total  log10-change:
#                          energy   eigst   dens
# iter:   1 03:07:46   -14.588074                  +1.0,+0.0,+0.0
# iter:   2 03:08:06   -13.781029   -0.02  -1.10   +0.9,-0.0,+0.0
# iter:   3 03:08:26   -13.640676   -0.63  -1.38   +1.1,-0.0,+0.0
# iter:   4 03:08:45   -13.852351   -0.90  -1.55   +1.3,-0.0,-0.0
# iter:   5 03:09:05   -13.940723   -1.41  -1.64   +1.7,-0.0,-0.0
# iter:   6 03:09:24   -14.150201   -1.63  -1.60   +1.9,-0.0,-0.0
# iter:   7 03:09:44   -14.261658   -1.92  -1.48   +2.1,-0.0,-0.0
# iter:   8 03:10:03   -14.331811   -1.05  -1.44   +2.5,-0.0,-0.0
# iter:   9 03:10:23   -14.230618   -2.29  -1.76   +2.3,-0.0,-0.0
# iter:  10 03:10:43   -14.860850   -1.27  -1.67   +2.9,-0.0,-0.0
# iter:  11 03:11:03   -15.308028   -1.70  -1.82   +3.5,+0.0,+0.0
# iter:  12 03:11:22   -15.400298   -2.17  -1.80   +3.6,+0.0,+0.0
# iter:  13 03:11:42   -16.040155   -1.70  -1.79   +3.8,+0.0,+0.0
# iter:  14 03:12:01   -15.207170   -1.58  -1.48   +3.9,+0.0,-0.0
# iter:  15 03:12:21   -15.112626   -1.55  -1.89   +3.6,+0.0,-0.0
# iter:  16 03:12:41   -15.156013   -2.64  -2.28   +3.8,+0.0,-0.0
# iter:  17 03:13:00   -15.173519   -2.94  -2.34   +4.0,+0.0,-0.0
# iter:  18 03:13:20   -15.134694   -2.96  -2.37   +3.8,+0.0,-0.0
# iter:  19 03:13:40   -15.188659   -2.73  -2.29   +4.1,+0.0,-0.0
# iter:  20 03:13:59   -15.189098   -3.57  -2.32   +4.1,+0.0,-0.0
# iter:  21 03:14:19   -15.197984c  -3.13  -2.37   +4.1,+0.0,-0.0
# iter:  22 03:14:38   -15.207792   -2.20  -2.38   +4.2,+0.0,-0.0
# iter:  23 03:14:58   -15.194546c  -2.97  -2.44   +4.2,+0.0,-0.0
# iter:  24 03:15:18   -15.194136c  -3.79  -2.67   +4.3,+0.0,-0.0
# iter:  25 03:15:37   -15.192594c  -3.91  -2.69   +4.3,+0.0,-0.0
# iter:  26 03:15:57   -15.194187c  -3.87  -2.76   +4.3,+0.0,-0.0
# iter:  27 03:16:16   -15.194410c  -4.28  -2.81   +4.2,+0.0,-0.0
# iter:  28 03:16:36   -15.194407c  -4.65  -2.93   +4.2,+0.0,-0.0
# iter:  29 03:16:55   -15.194391c  -4.62  -2.96   +4.2,+0.0,-0.0
# iter:  30 03:17:15   -15.194084c  -4.62  -3.02   +4.2,+0.0,-0.0
# iter:  31 03:17:35   -15.194498c  -4.60  -3.05   +4.2,+0.0,-0.0
# iter:  32 03:17:54   -15.194119c  -4.85  -3.09   +4.2,+0.0,-0.0
# iter:  33 03:18:14   -15.193759c  -5.03  -3.19   +4.2,+0.0,-0.0
# iter:  34 03:18:34   -15.193772c  -5.65  -3.34   +4.2,+0.0,-0.0
# iter:  35 03:18:53   -15.193821c  -4.98  -3.38   +4.2,+0.0,-0.0
# iter:  36 03:19:13   -15.193841c  -5.36  -3.40   +4.2,+0.0,-0.0
# iter:  37 03:19:33   -15.193917c  -5.58  -3.45   +4.2,+0.0,-0.0
# iter:  38 03:19:53   -15.193937c  -5.37  -3.53   +4.2,+0.0,-0.0
# iter:  39 03:20:13   -15.193928c  -6.21  -3.62   +4.2,+0.0,-0.0
# iter:  40 03:20:32   -15.193984c  -4.92  -3.64   +4.2,-0.0,-0.0
# iter:  41 03:20:52   -15.193924c  -5.69  -3.84   +4.2,-0.0,-0.0
# iter:  42 03:21:12   -15.193927c  -6.74  -4.51c  +4.2,-0.0,-0.0
# iter:  43 03:21:32   -15.193935c  -6.94  -4.52c  +4.2,-0.0,-0.0
# iter:  44 03:21:51   -15.193928c  -6.22  -4.44c  +4.2,-0.0,-0.0
# iter:  45 03:22:11   -15.193930c  -7.15  -4.37c  +4.2,-0.0,-0.0
# iter:  46 03:22:31   -15.193930c  -7.44c -4.56c  +4.2,-0.0,-0.0
scf_steps: 46
energies:  # eV
  coulomb:         -17.269703
  zero:              0.088397
  xc:              -18.371317
  external:          0.000000
  kinetic:          20.359681
  spinorbit:         0.000000
  entropy:          -0.001975
  total:           -15.194917
  extrapolated:    -15.193930

dipole moment: [-4.683959, -8.112855, -9.845014]  # |e|*Ang

total magnetic moment: [4.205337, -0.000001, -0.000000]

local magnetic moments: [
  [ 4.248416,  0.000000, -0.000000],  # Mn 0
  [ 0.000000, -0.000000, -0.000000],  # I  1
  [-0.000000, -0.000000, -0.000000]]  # I  2


Fermi level: -1.524 eV

kpt = [-0.455, -0.455, 0.000], weight = 0.008:
  Band      eig [eV]   occ [0-1]
     0       -82.392       1.000
   ...
    21        -4.729       1.000
    22        -4.419       1.000
    23        -4.062       1.000
    24        -4.010       1.000
    25        -3.882       1.000
    26        -3.839       1.000
    27        -2.430       1.000
    28        -2.368       1.000
    29        -0.750       0.000
    30        -0.570       0.000
    31        -0.523       0.000
    32         0.176       0.000
    33         0.207       0.000
    34         1.884       0.000
    35         2.591       0.000
    36         3.751       0.000
   ...
    41         5.240       0.000

kpt = [-0.455, -0.364, 0.000], weight = 0.008:
  Band      eig [eV]   occ [0-1]
     0       -82.392       1.000
   ...
    21        -4.471       1.000
    22        -4.420       1.000
    23        -4.109       1.000
    24        -3.973       1.000
    25        -3.823       1.000
    26        -3.690       1.000
    27        -2.485       1.000
    28        -2.273       0.999
    29        -0.714       0.000
    30        -0.657       0.000
    31        -0.533       0.000
    32         0.164       0.000
    33         0.267       0.000
    34         1.680       0.000
    35         2.302       0.000
    36         3.442       0.000
   ...
    41         4.618       0.000

kpt = [-0.455, -0.273, 0.000], weight = 0.008:
  Band      eig [eV]   occ [0-1]
     0       -82.392       1.000
   ...
    21        -4.257       1.000
    22        -4.223       1.000
    23        -4.129       1.000
    24        -3.896       1.000
    25        -3.736       1.000
    26        -3.550       1.000
    27        -2.478       1.000
    28        -2.166       0.998
    29        -0.869       0.001
    30        -0.604       0.000
    31        -0.548       0.000
    32         0.168       0.000
    33         0.316       0.000
    34         1.408       0.000
    35         1.950       0.000
    36         2.886       0.000
   ...
    41         4.361       0.000
(only showing first 3 out of 121 k-points)

Gap: 1.216 eV
Transition (v -> c):
  (s=0, k=40, n=28, [-0.18, 0.18, 0.00]) -> (s=0, k=107, n=29, [0.36, 0.27, 0.00])
