#  __  _  _
# | _ |_)|_||  |
# |__||  | ||/\| - 24.1.0

User:   s194113@n-62-28-30
Date:   Mon Apr 22 18:59:43 2024
Arch:   x86_64
Pid:    16354
CWD:    /zhome/87/8/147075/10302/10302_NM/MnI2/V_con
Python: 3.8.5
gpaw:   /zhome/87/8/147075/venv-name/gpaw/gpaw (10808453a8)
_gpaw:  /zhome/87/8/147075/venv-name/gpaw/
        _gpaw.cpython-38-x86_64-linux-gnu.so (10808453a8)
ase:    /zhome/87/8/147075/venv-name/ase/ase (version 3.23.0b1-c36115a2db)
numpy:  /zhome/87/8/147075/venv-name/lib/python3.8/site-packages/numpy (version 1.24.4)
scipy:  /zhome/87/8/147075/venv-name/lib/python3.8/site-packages/scipy (version 1.10.1)
libxc:  4.3.4
units:  Angstrom and eV
cores: 12
OpenMP: False
OMP_NUM_THREADS: 1

---
input parameters:
  kpts: 
    density: 6.0
    gamma: True
  magmoms: [[1, 0, 0], [0, 0, 0], [0, 0, 0]]
  mixer: 
    backend: 'pulay'
    beta: 0.05
    method: 'sum'
    nmaxold: 5
    weight: 100
  mode: 
    name: 'pw'
    ecut: 600
    qspiral: array([0.30952381, 0.30952381, 0.        ])
  parallel: 
    kpt: None
    domain: 1
    band: 1
    order: 'kdb'
    stridebands: False
    augment_grids: False
    sl_auto: False
    sl_default: None
    sl_diagonalize: None
    sl_inverse_cholesky: None
    sl_lcao: None
    sl_lrtddft: None
    use_elpa: False
    elpasolver: '2stage'
    buffer_size: None
    gpu: False
  symmetry: 
    point_group: False
    time_reversal: False
  xc: 
    name: 'LDA'

#                        
#                        
#                        
#                        
#                        
#              I         
#                        
#        Mn              
#          I             
#                        
#                        
#                        
#                        
#                        

atoms: [  # symbols, positions [Ang] and initial magnetic moments
  [ Mn, [   0.000000,    0.000000,    2.513573], [ 1.000,  0.000,  0.000]], # 0
  [  I, [   2.083000,    1.202621,    4.027147], [ 0.000,  0.000,  0.000]], # 1
  [  I, [   0.000000,    2.405241,    1.000000], [ 0.000,  0.000,  0.000]]] # 2

cell: [  # Ang
#     x            y            z
  [   4.166000,    0.000000,    0.000000],
  [  -2.083000,    3.607862,    0.000000],
  [   0.000000,   -0.000000,    5.027147]]

periodic: [True      , True      , False     ]
lengths:  [  4.166000,   4.166000,   5.027147]  # Ang
angles:   [ 90.000000,  90.000000, 120.000000]

symmetry:
  number of symmetries: 1
  rotations: [
    [[ 1,  0,  0], [ 0,  1,  0], [ 0,  0,  1]]]

bz sampling:
  number of bz points: 121
  number of ibz points: 121
  monkhorst-pack size: [11, 11, 1]
  monkhorst-pack shift: [0, 0, 0]
  points and weights: [
    [[ -0.45454545,  -0.45454545,   0.00000000], 0.00826446],  # 0
    [[ -0.45454545,  -0.36363636,   0.00000000], 0.00826446],  # 1
    [[ -0.45454545,  -0.27272727,   0.00000000], 0.00826446],  # 2
    [[ -0.45454545,  -0.18181818,   0.00000000], 0.00826446],  # 3
    [[ -0.45454545,  -0.09090909,   0.00000000], 0.00826446],  # 4
    [[ -0.45454545,   0.00000000,   0.00000000], 0.00826446],  # 5
    [[ -0.45454545,   0.09090909,   0.00000000], 0.00826446],  # 6
    [[ -0.45454545,   0.18181818,   0.00000000], 0.00826446],  # 7
    [[ -0.45454545,   0.27272727,   0.00000000], 0.00826446],  # 8
    [[ -0.45454545,   0.36363636,   0.00000000], 0.00826446],  # 9
    # ...
    [[  0.45454545,   0.45454545,   0.00000000], 0.00826446]]  # 120

plane wave coefficients: 2534
cutoff: 600.0 eV

spin-components: 4  # (non-collinear spins)
bands: 42
valence electrons: 29.0
spin-degeneracy: 1
dtype: complex128

memory:
    wave functions: 412_089_216  # bytes  (34_340_768 per core)

parallelization:
    kpt:    12
    domain: 1
    band:   1

density:
  components: 4
  grid points: [24 24 30]
  charge: 0.0  # |e|

potential:
  grid points: [24 24 30]

species:
  Mn:
    name: Manganese
    id: 0d715a8018be061a6e9ea6f2d364ac92
    Z: 25.0
    valence: 15
    core: 10
    charge: 0.0
    file: /zhome/86/d/1666/PAW/gpaw-setups-0.9.20000/Mn.LDA.gz
    compensation charges: {type: gauss,
                           rc: 0.38,
                           lmax: 2}
    cutoffs: {filter: 2.14,
              core: 0.86}
    valence states:
      #              energy  rcut
      - 3s(2.00)   -85.387   1.275
      - 4s(2.00)    -5.282   1.275
      - 3p(6.00)   -54.493   1.281
      - 4p(0.00)    -1.471   1.281
      - 3d(5.00)    -7.009   1.138
      -  d          20.203   1.138
  
    # Using partial waves for Mn as LCAO basis

  I:
    name: Iodine
    id: b559721c0c096a7b4c8fc0e0f4de5cf4
    Z: 53.0
    valence: 7
    core: 46
    charge: 0.0
    file: /zhome/86/d/1666/PAW/gpaw-setups-0.9.20000/I.LDA.gz
    compensation charges: {type: gauss,
                           rc: 0.37,
                           lmax: 2}
    cutoffs: {filter: 2.06,
              core: 2.90}
    valence states:
      #              energy  rcut
      - 5s(2.00)   -17.626   1.164
      - 5p(5.00)    -7.241   1.164
      -  s           9.585   1.164
      -  p          19.970   1.164
      -  d           0.000   1.164
  
    # Using partial waves for I as LCAO basis

Reference energy: -418222.442431  # eV

eigensolver:
  name: 'Davidson'
  niter: 2
  converge_bands: 'occupied'
Density mixing:
  Method: sum
  Backend: pulay
  Linear mixing parameter: 0.05
  old densities: 5
  Damping of long wavelength oscillations: 100
occupation numbers:
  Fermi-Dirac:
    width: 0.1000  # eV
  

poisson solver:
  ecut: 4800.0  # eV

xc functional:
  name: None

convergence criteria:
- Maximum [total energy] change in last 3 cyles: 0.0005 eV / valence electron
- Maximum integral of absolute [dens]ity change: 0.0001 electrons / valence electron
- Maximum integral of absolute [eigenst]ate change: 4e-08 eV^2 / valence electron
maximum number of iterations: 333

#      iter     time        total  log10-change:
#                          energy   eigst   dens
# iter:   1 19:00:02   -14.955960                  +1.0,+0.0,+0.0
# iter:   2 19:00:09   -13.423540   -0.28  -1.02   +0.8,+0.0,+0.0
# iter:   3 19:00:16   -13.330409   -1.15  -1.39   +1.0,+0.0,+0.0
# iter:   4 19:00:23   -13.491870   -1.32  -1.52   +1.3,+0.0,+0.0
# iter:   5 19:00:30   -13.504441   -2.71  -1.67   +1.6,+0.0,+0.0
# iter:   6 19:00:37   -13.482071   -3.20  -1.69   +1.7,+0.0,-0.0
# iter:   7 19:00:44   -13.460631   -2.60  -1.74   +1.8,+0.0,+0.0
# iter:   8 19:00:51   -13.467722   -2.72  -1.84   +1.8,+0.0,+0.0
# iter:   9 19:00:58   -13.842118   -2.33  -1.79   +2.3,+0.0,-0.0
# iter:  10 19:01:05   -13.403410   -2.48  -1.87   +1.8,-0.0,-0.0
# iter:  11 19:01:12   -13.935436   -2.42  -1.69   +2.5,+0.0,-0.0
# iter:  12 19:01:19   -14.121617   -2.00  -1.81   +3.1,+0.0,-0.0
# iter:  13 19:01:26   -14.258517   -2.78  -2.07   +3.3,+0.0,-0.0
# iter:  14 19:01:34   -14.227253   -2.12  -1.74   +3.6,+0.0,-0.0
# iter:  15 19:01:41   -14.218555   -2.78  -2.16   +3.5,+0.0,-0.0
# iter:  16 19:01:48   -14.235838   -3.86  -2.25   +3.5,+0.0,-0.0
# iter:  17 19:01:55   -14.316595   -3.06  -2.30   +4.0,+0.0,-0.0
# iter:  18 19:02:02   -14.310115   -2.94  -2.59   +4.1,+0.0,-0.0
# iter:  19 19:02:09   -14.310431c  -4.77  -2.71   +4.1,+0.0,-0.0
# iter:  20 19:02:17   -14.311731c  -4.32  -2.78   +4.1,+0.0,-0.0
# iter:  21 19:02:24   -14.311418c  -3.19  -2.83   +4.1,+0.0,-0.0
# iter:  22 19:02:31   -14.309137c  -3.42  -2.68   +4.0,+0.0,-0.0
# iter:  23 19:02:38   -14.308308c  -5.14  -3.16   +4.0,+0.0,-0.0
# iter:  24 19:02:45   -14.308229c  -5.17  -3.35   +4.0,+0.0,-0.0
# iter:  25 19:02:52   -14.308406c  -5.24  -3.26   +4.0,+0.0,-0.0
# iter:  26 19:02:59   -14.309333c  -4.56  -3.36   +4.0,+0.0,-0.0
# iter:  27 19:03:06   -14.309339c  -5.66  -3.50   +4.0,+0.0,-0.0
# iter:  28 19:03:13   -14.309534c  -6.21  -3.60   +4.0,+0.0,-0.0
# iter:  29 19:03:20   -14.309653c  -6.60  -3.74   +4.0,+0.0,-0.0
# iter:  30 19:03:28   -14.309642c  -7.74c -3.78   +4.0,+0.0,-0.0
# iter:  31 19:03:35   -14.309609c  -7.81c -3.80   +4.0,+0.0,-0.0
# iter:  32 19:03:42   -14.309610c  -7.87c -3.85   +4.0,+0.0,-0.0
# iter:  33 19:03:49   -14.309625c  -8.70c -3.88   +4.0,+0.0,-0.0
# iter:  34 19:03:56   -14.309697c  -7.15  -3.90   +4.0,+0.0,-0.0
# iter:  35 19:04:03   -14.309726c  -7.37  -3.95   +4.0,+0.0,-0.0
# iter:  36 19:04:10   -14.309720c  -8.61c -3.94   +4.0,+0.0,-0.0
# iter:  37 19:04:17   -14.309900c  -6.68  -3.94   +4.0,+0.0,-0.0
# iter:  38 19:04:24   -14.309924c  -7.33  -3.95   +4.1,+0.0,-0.0
# iter:  39 19:04:31   -14.309920c  -6.95  -3.99   +4.1,+0.0,-0.0
# iter:  40 19:04:38   -14.310048c  -7.05  -4.03c  +4.1,+0.0,-0.0
# iter:  41 19:04:45   -14.310012c  -7.35  -4.10c  +4.1,+0.0,-0.0
# iter:  42 19:04:52   -14.310000c  -7.34  -4.12c  +4.1,+0.0,-0.0
# iter:  43 19:05:00   -14.310101c  -7.09  -4.17c  +4.1,+0.0,-0.0
# iter:  44 19:05:07   -14.310096c  -7.84c -4.45c  +4.1,+0.0,-0.0
scf_steps: 44
energies:  # eV
  coulomb:         -27.271712
  zero:              0.078022
  xc:              -21.694093
  external:          0.000000
  kinetic:          34.600794
  spinorbit:         0.000000
  entropy:          -0.046214
  total:           -14.333203
  extrapolated:    -14.310096

dipole moment: [-4.733064, -8.197908, -1.473753]  # |e|*Ang

total magnetic moment: [4.058539, 0.001724, -0.000000]

local magnetic moments: [
  [ 4.035191, -0.000000, -0.000000],  # Mn 0
  [-0.002176, -0.005545, -0.000000],  # I  1
  [-0.002176, -0.005545, -0.000000]]  # I  2


Fermi level: 7.349 eV

kpt = [-0.455, -0.455, 0.000], weight = 0.008:
  Band      eig [eV]   occ [0-1]
     0       -73.458       1.000
   ...
    21         4.097       1.000
    22         4.543       1.000
    23         4.556       1.000
    24         4.970       1.000
    25         5.238       1.000
    26         5.258       1.000
    27         5.684       1.000
    28         6.082       1.000
    29         7.724       0.023
    30         7.967       0.002
    31         8.108       0.001
    32         8.717       0.000
    33         8.817       0.000
    34         9.396       0.000
    35        10.165       0.000
    36        11.932       0.000
   ...
    41        13.897       0.000

kpt = [-0.455, -0.364, 0.000], weight = 0.008:
  Band      eig [eV]   occ [0-1]
     0       -73.458       1.000
   ...
    21         4.019       1.000
    22         4.254       1.000
    23         4.614       1.000
    24         4.974       1.000
    25         5.079       1.000
    26         5.374       1.000
    27         5.870       1.000
    28         6.657       0.999
    29         7.652       0.046
    30         7.837       0.008
    31         8.097       0.001
    32         8.752       0.000
    33         9.081       0.000
    34         9.893       0.000
    35        10.595       0.000
    36        11.491       0.000
   ...
    41        14.027       0.000

kpt = [-0.455, -0.273, 0.000], weight = 0.008:
  Band      eig [eV]   occ [0-1]
     0       -73.458       1.000
   ...
    21         4.083       1.000
    22         4.282       1.000
    23         4.642       1.000
    24         4.731       1.000
    25         5.093       1.000
    26         5.362       1.000
    27         6.266       1.000
    28         7.078       0.938
    29         7.553       0.116
    30         7.802       0.011
    31         8.094       0.001
    32         8.871       0.000
    33         9.336       0.000
    34        10.596       0.000
    35        10.986       0.000
    36        11.440       0.000
   ...
    41        13.281       0.000
(only showing first 3 out of 121 k-points)

No gap
# Writing to gsq-17.gpw (mode='')

