#  __  _  _
# | _ |_)|_||  |
# |__||  | ||/\| - 24.1.0

User:   s194113@n-62-28-29
Date:   Tue Apr 23 02:01:17 2024
Arch:   x86_64
Pid:    26782
CWD:    /zhome/87/8/147075/10302/10302_NM/MnI2/V_con
Python: 3.8.5
gpaw:   /zhome/87/8/147075/venv-name/gpaw/gpaw (10808453a8)
_gpaw:  /zhome/87/8/147075/venv-name/gpaw/
        _gpaw.cpython-38-x86_64-linux-gnu.so (10808453a8)
ase:    /zhome/87/8/147075/venv-name/ase/ase (version 3.23.0b1-c36115a2db)
numpy:  /zhome/87/8/147075/venv-name/lib/python3.8/site-packages/numpy (version 1.24.4)
scipy:  /zhome/87/8/147075/venv-name/lib/python3.8/site-packages/scipy (version 1.10.1)
libxc:  4.3.4
units:  Angstrom and eV
cores: 12
OpenMP: False
OMP_NUM_THREADS: 1

---
input parameters:
  kpts: 
    density: 6.0
    gamma: True
  magmoms: [[1, 0, 0], [0, 0, 0], [0, 0, 0]]
  mixer: 
    backend: 'pulay'
    beta: 0.05
    method: 'sum'
    nmaxold: 5
    weight: 100
  mode: 
    name: 'pw'
    ecut: 600
    qspiral: array([0.38888889, 0.22222222, 0.        ])
  parallel: 
    kpt: None
    domain: 1
    band: 1
    order: 'kdb'
    stridebands: False
    augment_grids: False
    sl_auto: False
    sl_default: None
    sl_diagonalize: None
    sl_inverse_cholesky: None
    sl_lcao: None
    sl_lrtddft: None
    use_elpa: False
    elpasolver: '2stage'
    buffer_size: None
    gpu: False
  symmetry: 
    point_group: False
    time_reversal: False
  xc: 
    name: 'LDA'

#                        
#                        
#                        
#                        
#                        
#              I         
#                        
#        Mn              
#          I             
#                        
#                        
#                        
#                        
#                        

atoms: [  # symbols, positions [Ang] and initial magnetic moments
  [ Mn, [   0.000000,    0.000000,    8.513573], [ 1.000,  0.000,  0.000]], # 0
  [  I, [   2.083000,    1.202621,   10.027147], [ 0.000,  0.000,  0.000]], # 1
  [  I, [   0.000000,    2.405241,    7.000000], [ 0.000,  0.000,  0.000]]] # 2

cell: [  # Ang
#     x            y            z
  [   4.166000,    0.000000,    0.000000],
  [  -2.083000,    3.607862,    0.000000],
  [   0.000000,   -0.000000,   17.027147]]

periodic: [True      , True      , False     ]
lengths:  [  4.166000,   4.166000,  17.027147]  # Ang
angles:   [ 90.000000,  90.000000, 120.000000]

symmetry:
  number of symmetries: 1
  rotations: [
    [[ 1,  0,  0], [ 0,  1,  0], [ 0,  0,  1]]]

bz sampling:
  number of bz points: 121
  number of ibz points: 121
  monkhorst-pack size: [11, 11, 1]
  monkhorst-pack shift: [0, 0, 0]
  points and weights: [
    [[ -0.45454545,  -0.45454545,   0.00000000], 0.00826446],  # 0
    [[ -0.45454545,  -0.36363636,   0.00000000], 0.00826446],  # 1
    [[ -0.45454545,  -0.27272727,   0.00000000], 0.00826446],  # 2
    [[ -0.45454545,  -0.18181818,   0.00000000], 0.00826446],  # 3
    [[ -0.45454545,  -0.09090909,   0.00000000], 0.00826446],  # 4
    [[ -0.45454545,   0.00000000,   0.00000000], 0.00826446],  # 5
    [[ -0.45454545,   0.09090909,   0.00000000], 0.00826446],  # 6
    [[ -0.45454545,   0.18181818,   0.00000000], 0.00826446],  # 7
    [[ -0.45454545,   0.27272727,   0.00000000], 0.00826446],  # 8
    [[ -0.45454545,   0.36363636,   0.00000000], 0.00826446],  # 9
    # ...
    [[  0.45454545,   0.45454545,   0.00000000], 0.00826446]]  # 120

plane wave coefficients: 8581
cutoff: 600.0 eV

spin-components: 4  # (non-collinear spins)
bands: 42
valence electrons: 29.0
spin-degeneracy: 1
dtype: complex128

memory:
    wave functions: 1_389_459_456  # bytes  (115_788_288 per core)

parallelization:
    kpt:    12
    domain: 1
    band:   1

density:
  components: 4
  grid points: [24 24 98]
  charge: 0.0  # |e|

potential:
  grid points: [24 24 98]

species:
  Mn:
    name: Manganese
    id: 0d715a8018be061a6e9ea6f2d364ac92
    Z: 25.0
    valence: 15
    core: 10
    charge: 0.0
    file: /zhome/86/d/1666/PAW/gpaw-setups-0.9.20000/Mn.LDA.gz
    compensation charges: {type: gauss,
                           rc: 0.38,
                           lmax: 2}
    cutoffs: {filter: 2.14,
              core: 0.86}
    valence states:
      #              energy  rcut
      - 3s(2.00)   -85.387   1.275
      - 4s(2.00)    -5.282   1.275
      - 3p(6.00)   -54.493   1.281
      - 4p(0.00)    -1.471   1.281
      - 3d(5.00)    -7.009   1.138
      -  d          20.203   1.138
  
    # Using partial waves for Mn as LCAO basis

  I:
    name: Iodine
    id: b559721c0c096a7b4c8fc0e0f4de5cf4
    Z: 53.0
    valence: 7
    core: 46
    charge: 0.0
    file: /zhome/86/d/1666/PAW/gpaw-setups-0.9.20000/I.LDA.gz
    compensation charges: {type: gauss,
                           rc: 0.37,
                           lmax: 2}
    cutoffs: {filter: 2.06,
              core: 2.90}
    valence states:
      #              energy  rcut
      - 5s(2.00)   -17.626   1.164
      - 5p(5.00)    -7.241   1.164
      -  s           9.585   1.164
      -  p          19.970   1.164
      -  d           0.000   1.164
  
    # Using partial waves for I as LCAO basis

Reference energy: -418222.442431  # eV

eigensolver:
  name: 'Davidson'
  niter: 2
  converge_bands: 'occupied'
Density mixing:
  Method: sum
  Backend: pulay
  Linear mixing parameter: 0.05
  old densities: 5
  Damping of long wavelength oscillations: 100
occupation numbers:
  Fermi-Dirac:
    width: 0.1000  # eV
  

poisson solver:
  ecut: 4800.0  # eV

xc functional:
  name: None

convergence criteria:
- Maximum [total energy] change in last 3 cyles: 0.0005 eV / valence electron
- Maximum integral of absolute [dens]ity change: 0.0001 electrons / valence electron
- Maximum integral of absolute [eigenst]ate change: 4e-08 eV^2 / valence electron
maximum number of iterations: 333

#      iter     time        total  log10-change:
#                          energy   eigst   dens
# iter:   1 02:01:47   -14.680916                  +1.0,+0.0,+0.0
# iter:   2 02:02:07   -13.793204   -0.07  -1.10   +0.9,-0.0,+0.0
# iter:   3 02:02:26   -13.644319   -0.67  -1.38   +1.1,-0.0,-0.0
# iter:   4 02:02:46   -13.855560   -0.92  -1.55   +1.3,-0.0,-0.0
# iter:   5 02:03:05   -13.940831   -1.45  -1.64   +1.7,-0.0,-0.0
# iter:   6 02:03:25   -14.158933   -1.66  -1.60   +1.9,-0.0,-0.0
# iter:   7 02:03:44   -14.218530   -1.95  -1.48   +2.1,-0.0,-0.0
# iter:   8 02:04:03   -13.336308   -1.47  -1.44   +1.6,-0.0,-0.0
# iter:   9 02:04:23   -13.361947   -1.81  -1.71   +1.0,-0.0,-0.0
# iter:  10 02:04:42   -13.269961   -1.62  -1.66   +0.4,-0.0,-0.0
# iter:  11 02:05:02   -13.667484   -1.69  -1.84   -0.6,-0.0,-0.0
# iter:  12 02:05:21   -13.109706   -1.20  -1.34   +0.6,-0.0,-0.0
# iter:  13 02:05:40   -14.026574   -2.17  -2.17   +1.6,-0.0,-0.0
# iter:  14 02:06:00   -13.802932   -2.36  -1.61   +1.7,-0.0,-0.0
# iter:  15 02:06:19   -14.411408   -2.16  -1.56   +2.4,-0.0,-0.0
# iter:  16 02:06:39   -14.347512   -3.13  -1.56   +2.4,-0.0,-0.0
# iter:  17 02:06:58   -13.699351   -2.08  -1.50   +1.9,-0.0,-0.0
# iter:  18 02:07:18   -13.583029   -1.96  -1.52   +1.5,-0.0,-0.0
# iter:  19 02:07:38   -13.594893   -2.02  -1.57   +1.5,-0.0,-0.0
# iter:  20 02:07:57   -13.499719   -2.25  -1.80   +1.4,-0.0,-0.0
# iter:  21 02:08:17   -13.418924   -2.97  -2.29   +1.1,-0.0,-0.0
# iter:  22 02:08:36   -13.648111   -2.63  -2.41   +1.3,-0.0,-0.0
# iter:  23 02:08:56   -13.419145   -2.81  -2.33   +1.0,-0.0,-0.0
# iter:  24 02:09:16   -13.341516   -1.64  -2.41   +0.5,-0.0,-0.0
# iter:  25 02:09:35   -13.384245   -3.16  -1.81   +0.6,-0.0,-0.0
# iter:  26 02:09:55   -13.498300   -2.43  -2.20   +0.9,-0.0,-0.0
# iter:  27 02:10:14   -13.524890   -3.64  -2.76   +1.0,-0.0,-0.0
# iter:  28 02:10:34   -13.481437   -3.88  -2.52   +1.0,-0.0,-0.0
# iter:  29 02:10:53   -13.560654   -3.75  -2.37   +1.1,-0.0,-0.0
# iter:  30 02:11:13   -13.558004   -4.24  -2.18   +1.2,-0.0,-0.0
# iter:  31 02:11:33   -13.508176   -3.46  -2.17   +1.2,-0.0,-0.0
# iter:  32 02:11:53   -13.502437   -4.61  -2.04   +1.1,-0.0,-0.0
# iter:  33 02:12:12   -13.533191   -4.25  -2.10   +1.2,-0.0,-0.0
# iter:  34 02:12:32   -13.673454   -3.08  -2.13   +1.4,-0.0,-0.0
# iter:  35 02:12:51   -13.453438   -3.17  -2.01   +1.2,-0.0,-0.0
# iter:  36 02:13:11   -13.571477   -3.56  -2.18   +1.3,-0.0,-0.0
# iter:  37 02:13:31   -13.477182   -3.78  -2.29   +1.1,-0.0,-0.0
# iter:  38 02:13:50   -13.481919   -4.34  -2.51   +1.1,-0.0,-0.0
# iter:  39 02:14:10   -13.611774   -3.33  -2.72   +1.2,-0.0,-0.0
# iter:  40 02:14:30   -13.754283   -3.31  -2.27   +1.5,-0.0,-0.0
# iter:  41 02:14:49   -13.659582   -3.57  -2.06   +1.5,-0.0,-0.0
# iter:  42 02:15:09   -13.918210   -2.95  -1.94   +1.8,-0.0,-0.0
# iter:  43 02:15:28   -13.941736   -3.79  -1.88   +2.0,-0.0,-0.0
# iter:  44 02:15:48   -13.665437   -3.08  -1.79   +1.8,-0.0,-0.0
# iter:  45 02:16:07   -13.856862   -3.76  -1.85   +1.9,-0.0,-0.0
# iter:  46 02:16:27   -14.463589   -2.40  -1.81   +2.5,+0.0,-0.0
# iter:  47 02:16:46   -14.587860   -3.09  -1.66   +2.8,+0.0,-0.0
# iter:  48 02:17:06   -12.803345   -1.44  -1.66   +1.0,-0.0,-0.0
# iter:  49 02:17:25   -13.309646   -2.43  -2.55   +0.5,-0.0,-0.0
# iter:  50 02:17:45   -13.503227   -2.50  -2.32   +0.8,-0.0,-0.0
# iter:  51 02:18:04   -13.624162   -2.86  -3.01   +1.2,-0.0,-0.0
# iter:  52 02:18:24   -13.669294   -3.56  -2.18   +1.4,-0.0,-0.0
# iter:  53 02:18:43   -13.659356   -3.91  -2.00   +1.5,-0.0,-0.0
# iter:  54 02:19:03   -13.671384c  -4.31  -1.93   +1.5,-0.0,-0.0
# iter:  55 02:19:22   -13.665569c  -4.57  -1.92   +1.6,-0.0,-0.0
# iter:  56 02:19:42   -13.711736   -4.46  -1.91   +1.6,-0.0,-0.0
# iter:  57 02:20:01   -13.703377   -4.63  -1.87   +1.6,-0.0,-0.0
# iter:  58 02:20:21   -13.521618   -3.44  -1.84   +1.5,-0.0,-0.0
# iter:  59 02:20:41   -13.439505   -3.25  -2.07   +1.2,-0.0,-0.0
# iter:  60 02:21:00   -13.367871   -3.05  -2.13   +0.9,-0.0,-0.0
# iter:  61 02:21:20   -13.390844   -3.63  -2.50   +0.7,-0.0,-0.0
# iter:  62 02:21:39   -13.414896   -3.88  -2.82   +0.7,-0.0,-0.0
# iter:  63 02:21:59   -13.497104   -3.27  -2.82   +0.9,-0.0,-0.0
# iter:  64 02:22:18   -13.461722   -4.07  -2.42   +0.9,-0.0,-0.0
# iter:  65 02:22:38   -13.568410   -3.23  -2.24   +1.1,-0.0,-0.0
# iter:  66 02:22:58   -13.514403   -3.96  -2.19   +1.1,-0.0,-0.0
# iter:  67 02:23:17   -13.898722   -2.37  -2.09   +1.7,-0.0,-0.0
# iter:  68 02:23:37   -13.825773   -3.26  -1.93   +1.8,-0.0,-0.0
# iter:  69 02:23:56   -14.019028   -3.20  -1.83   +2.0,-0.0,-0.0
# iter:  70 02:24:16   -14.201896   -2.94  -1.75   +2.3,+0.0,-0.0
# iter:  71 02:24:35   -14.077761   -3.73  -1.71   +2.2,-0.0,-0.0
# iter:  72 02:24:55   -14.304899   -3.13  -1.69   +2.5,+0.0,-0.0
# iter:  73 02:25:14   -14.721520   -2.23  -1.71   +3.0,+0.0,-0.0
# iter:  74 02:25:34   -14.501001   -3.56  -1.83   +2.8,+0.0,-0.0
# iter:  75 02:25:54   -15.023825   -1.89  -1.81   +3.6,+0.0,-0.0
# iter:  76 02:26:13   -15.049158   -2.48  -2.25   +3.6,+0.0,-0.0
# iter:  77 02:26:33   -15.159172   -2.47  -2.47   +4.0,+0.0,-0.0
# iter:  78 02:26:52   -15.160280   -3.51  -2.64   +4.0,+0.0,-0.0
# iter:  79 02:27:12   -15.184166   -3.24  -2.68   +4.1,+0.0,-0.0
# iter:  80 02:27:31   -15.190050   -3.53  -2.75   +4.2,+0.0,-0.0
# iter:  81 02:27:51   -15.190881c  -4.15  -2.78   +4.2,+0.0,-0.0
# iter:  82 02:28:11   -15.191985c  -4.26  -2.83   +4.2,+0.0,-0.0
# iter:  83 02:28:30   -15.192183c  -4.54  -3.38   +4.2,+0.0,-0.0
# iter:  84 02:28:50   -15.192288c  -4.69  -3.42   +4.3,+0.0,-0.0
# iter:  85 02:29:09   -15.192338c  -4.89  -3.48   +4.3,+0.0,-0.0
# iter:  86 02:29:29   -15.192294c  -5.06  -3.59   +4.2,+0.0,-0.0
# iter:  87 02:29:48   -15.192104c  -5.07  -3.68   +4.2,+0.0,-0.0
# iter:  88 02:30:08   -15.192114c  -5.43  -3.66   +4.2,+0.0,-0.0
# iter:  89 02:30:28   -15.192186c  -5.55  -3.69   +4.2,+0.0,-0.0
# iter:  90 02:30:47   -15.192212c  -5.68  -3.72   +4.2,+0.0,-0.0
# iter:  91 02:31:07   -15.192298c  -5.63  -3.86   +4.2,+0.0,-0.0
# iter:  92 02:31:26   -15.192288c  -5.93  -3.99   +4.2,+0.0,-0.0
# iter:  93 02:31:46   -15.192315c  -5.88  -4.05c  +4.2,+0.0,-0.0
# iter:  94 02:32:05   -15.192339c  -6.05  -4.26c  +4.2,+0.0,-0.0
# iter:  95 02:32:25   -15.192354c  -6.07  -4.39c  +4.2,+0.0,-0.0
# iter:  96 02:32:45   -15.192359c  -6.33  -4.47c  +4.2,+0.0,-0.0
# iter:  97 02:33:04   -15.192362c  -6.46  -4.52c  +4.2,+0.0,-0.0
# iter:  98 02:33:24   -15.192380c  -6.43  -4.54c  +4.3,+0.0,-0.0
# iter:  99 02:33:44   -15.192380c  -6.67  -4.63c  +4.3,+0.0,-0.0
# iter: 100 02:34:03   -15.192385c  -6.78  -4.71c  +4.3,+0.0,-0.0
# iter: 101 02:34:23   -15.192392c  -6.61  -4.78c  +4.3,+0.0,-0.0
# iter: 102 02:34:43   -15.192392c  -6.98  -4.77c  +4.3,+0.0,-0.0
# iter: 103 02:35:02   -15.192391c  -7.08  -4.88c  +4.3,+0.0,-0.0
# iter: 104 02:35:22   -15.192392c  -7.12  -5.00c  +4.3,+0.0,-0.0
# iter: 105 02:35:41   -15.192392c  -7.34  -5.14c  +4.3,+0.0,-0.0
# iter: 106 02:36:01   -15.192394c  -7.43c -5.16c  +4.3,+0.0,-0.0
scf_steps: 106
energies:  # eV
  coulomb:         -17.312214
  zero:              0.090078
  xc:              -18.372988
  external:          0.000000
  kinetic:          20.403786
  spinorbit:         0.000000
  entropy:          -0.002113
  total:           -15.193451
  extrapolated:    -15.192394

dipole moment: [-4.626877, -8.321352, -10.156290]  # |e|*Ang

total magnetic moment: [4.255007, 0.001334, -0.000000]

local magnetic moments: [
  [ 4.248383, -0.000000, -0.000000],  # Mn 0
  [-0.012392, -0.000001, -0.000000],  # I  1
  [ 0.009492, -0.007966, -0.000000]]  # I  2


Fermi level: -1.520 eV

kpt = [-0.455, -0.455, 0.000], weight = 0.008:
  Band      eig [eV]   occ [0-1]
     0       -82.393       1.000
   ...
    21        -4.645       1.000
    22        -4.392       1.000
    23        -4.118       1.000
    24        -4.009       1.000
    25        -3.866       1.000
    26        -3.826       1.000
    27        -2.439       1.000
    28        -2.339       1.000
    29        -0.750       0.000
    30        -0.585       0.000
    31        -0.533       0.000
    32         0.161       0.000
    33         0.243       0.000
    34         1.826       0.000
    35         2.531       0.000
    36         3.777       0.000
   ...
    41         4.794       0.000

kpt = [-0.455, -0.364, 0.000], weight = 0.008:
  Band      eig [eV]   occ [0-1]
     0       -82.393       1.000
   ...
    21        -4.531       1.000
    22        -4.312       1.000
    23        -4.138       1.000
    24        -3.957       1.000
    25        -3.784       1.000
    26        -3.706       1.000
    27        -2.516       1.000
    28        -2.238       0.999
    29        -0.723       0.000
    30        -0.657       0.000
    31        -0.531       0.000
    32         0.142       0.000
    33         0.286       0.000
    34         1.630       0.000
    35         2.390       0.000
    36         3.277       0.000
   ...
    41         4.835       0.000

kpt = [-0.455, -0.273, 0.000], weight = 0.008:
  Band      eig [eV]   occ [0-1]
     0       -82.393       1.000
   ...
    21        -4.251       1.000
    22        -4.206       1.000
    23        -4.059       1.000
    24        -3.879       1.000
    25        -3.695       1.000
    26        -3.556       1.000
    27        -2.549       1.000
    28        -2.140       0.998
    29        -0.844       0.001
    30        -0.587       0.000
    31        -0.558       0.000
    32         0.107       0.000
    33         0.322       0.000
    34         1.451       0.000
    35         2.194       0.000
    36         2.877       0.000
   ...
    41         4.407       0.000
(only showing first 3 out of 121 k-points)

Gap: 1.163 eV
Transition (v -> c):
  (s=0, k=93, n=28, [0.27, 0.00, 0.00]) -> (s=0, k=92, n=29, [0.27, -0.09, 0.00])
