#  __  _  _
# | _ |_)|_||  |
# |__||  | ||/\| - 24.1.0

User:   s194113@n-62-28-29
Date:   Tue Apr 23 03:22:31 2024
Arch:   x86_64
Pid:    26782
CWD:    /zhome/87/8/147075/10302/10302_NM/MnI2/V_con
Python: 3.8.5
gpaw:   /zhome/87/8/147075/venv-name/gpaw/gpaw (10808453a8)
_gpaw:  /zhome/87/8/147075/venv-name/gpaw/
        _gpaw.cpython-38-x86_64-linux-gnu.so (10808453a8)
ase:    /zhome/87/8/147075/venv-name/ase/ase (version 3.23.0b1-c36115a2db)
numpy:  /zhome/87/8/147075/venv-name/lib/python3.8/site-packages/numpy (version 1.24.4)
scipy:  /zhome/87/8/147075/venv-name/lib/python3.8/site-packages/scipy (version 1.10.1)
libxc:  4.3.4
units:  Angstrom and eV
cores: 12
OpenMP: False
OMP_NUM_THREADS: 1

---
input parameters:
  kpts: 
    density: 6.0
    gamma: True
  magmoms: [[1, 0, 0], [0, 0, 0], [0, 0, 0]]
  mixer: 
    backend: 'pulay'
    beta: 0.05
    method: 'sum'
    nmaxold: 5
    weight: 100
  mode: 
    name: 'pw'
    ecut: 600
    qspiral: array([0.30952381, 0.30952381, 0.        ])
  parallel: 
    kpt: None
    domain: 1
    band: 1
    order: 'kdb'
    stridebands: False
    augment_grids: False
    sl_auto: False
    sl_default: None
    sl_diagonalize: None
    sl_inverse_cholesky: None
    sl_lcao: None
    sl_lrtddft: None
    use_elpa: False
    elpasolver: '2stage'
    buffer_size: None
    gpu: False
  symmetry: 
    point_group: False
    time_reversal: False
  xc: 
    name: 'LDA'

#                        
#                        
#                        
#                        
#                        
#              I         
#                        
#        Mn              
#          I             
#                        
#                        
#                        
#                        
#                        

atoms: [  # symbols, positions [Ang] and initial magnetic moments
  [ Mn, [   0.000000,    0.000000,    8.513573], [ 1.000,  0.000,  0.000]], # 0
  [  I, [   2.083000,    1.202621,   10.027147], [ 0.000,  0.000,  0.000]], # 1
  [  I, [   0.000000,    2.405241,    7.000000], [ 0.000,  0.000,  0.000]]] # 2

cell: [  # Ang
#     x            y            z
  [   4.166000,    0.000000,    0.000000],
  [  -2.083000,    3.607862,    0.000000],
  [   0.000000,   -0.000000,   17.027147]]

periodic: [True      , True      , False     ]
lengths:  [  4.166000,   4.166000,  17.027147]  # Ang
angles:   [ 90.000000,  90.000000, 120.000000]

symmetry:
  number of symmetries: 1
  rotations: [
    [[ 1,  0,  0], [ 0,  1,  0], [ 0,  0,  1]]]

bz sampling:
  number of bz points: 121
  number of ibz points: 121
  monkhorst-pack size: [11, 11, 1]
  monkhorst-pack shift: [0, 0, 0]
  points and weights: [
    [[ -0.45454545,  -0.45454545,   0.00000000], 0.00826446],  # 0
    [[ -0.45454545,  -0.36363636,   0.00000000], 0.00826446],  # 1
    [[ -0.45454545,  -0.27272727,   0.00000000], 0.00826446],  # 2
    [[ -0.45454545,  -0.18181818,   0.00000000], 0.00826446],  # 3
    [[ -0.45454545,  -0.09090909,   0.00000000], 0.00826446],  # 4
    [[ -0.45454545,   0.00000000,   0.00000000], 0.00826446],  # 5
    [[ -0.45454545,   0.09090909,   0.00000000], 0.00826446],  # 6
    [[ -0.45454545,   0.18181818,   0.00000000], 0.00826446],  # 7
    [[ -0.45454545,   0.27272727,   0.00000000], 0.00826446],  # 8
    [[ -0.45454545,   0.36363636,   0.00000000], 0.00826446],  # 9
    # ...
    [[  0.45454545,   0.45454545,   0.00000000], 0.00826446]]  # 120

plane wave coefficients: 8581
cutoff: 600.0 eV

spin-components: 4  # (non-collinear spins)
bands: 42
valence electrons: 29.0
spin-degeneracy: 1
dtype: complex128

memory:
    wave functions: 1_389_459_456  # bytes  (115_788_288 per core)

parallelization:
    kpt:    12
    domain: 1
    band:   1

density:
  components: 4
  grid points: [24 24 98]
  charge: 0.0  # |e|

potential:
  grid points: [24 24 98]

species:
  Mn:
    name: Manganese
    id: 0d715a8018be061a6e9ea6f2d364ac92
    Z: 25.0
    valence: 15
    core: 10
    charge: 0.0
    file: /zhome/86/d/1666/PAW/gpaw-setups-0.9.20000/Mn.LDA.gz
    compensation charges: {type: gauss,
                           rc: 0.38,
                           lmax: 2}
    cutoffs: {filter: 2.14,
              core: 0.86}
    valence states:
      #              energy  rcut
      - 3s(2.00)   -85.387   1.275
      - 4s(2.00)    -5.282   1.275
      - 3p(6.00)   -54.493   1.281
      - 4p(0.00)    -1.471   1.281
      - 3d(5.00)    -7.009   1.138
      -  d          20.203   1.138
  
    # Using partial waves for Mn as LCAO basis

  I:
    name: Iodine
    id: b559721c0c096a7b4c8fc0e0f4de5cf4
    Z: 53.0
    valence: 7
    core: 46
    charge: 0.0
    file: /zhome/86/d/1666/PAW/gpaw-setups-0.9.20000/I.LDA.gz
    compensation charges: {type: gauss,
                           rc: 0.37,
                           lmax: 2}
    cutoffs: {filter: 2.06,
              core: 2.90}
    valence states:
      #              energy  rcut
      - 5s(2.00)   -17.626   1.164
      - 5p(5.00)    -7.241   1.164
      -  s           9.585   1.164
      -  p          19.970   1.164
      -  d           0.000   1.164
  
    # Using partial waves for I as LCAO basis

Reference energy: -418222.442431  # eV

eigensolver:
  name: 'Davidson'
  niter: 2
  converge_bands: 'occupied'
Density mixing:
  Method: sum
  Backend: pulay
  Linear mixing parameter: 0.05
  old densities: 5
  Damping of long wavelength oscillations: 100
occupation numbers:
  Fermi-Dirac:
    width: 0.1000  # eV
  

poisson solver:
  ecut: 4800.0  # eV

xc functional:
  name: None

convergence criteria:
- Maximum [total energy] change in last 3 cyles: 0.0005 eV / valence electron
- Maximum integral of absolute [dens]ity change: 0.0001 electrons / valence electron
- Maximum integral of absolute [eigenst]ate change: 4e-08 eV^2 / valence electron
maximum number of iterations: 333

#      iter     time        total  log10-change:
#                          energy   eigst   dens
# iter:   1 03:23:02   -14.678230                  +1.0,+0.0,+0.0
# iter:   2 03:23:22   -13.792498   -0.07  -1.10   +0.9,-0.0,+0.0
# iter:   3 03:23:41   -13.643110   -0.67  -1.38   +1.1,-0.0,+0.0
# iter:   4 03:24:01   -13.855986   -0.92  -1.55   +1.3,-0.0,+0.0
# iter:   5 03:24:20   -13.943581   -1.45  -1.64   +1.7,-0.0,-0.0
# iter:   6 03:24:40   -14.169807   -1.66  -1.60   +1.9,-0.0,-0.0
# iter:   7 03:24:59   -14.196426   -1.94  -1.48   +2.0,-0.0,-0.0
# iter:   8 03:25:19   -13.104872   -1.54  -1.43   +1.3,-0.0,-0.0
# iter:   9 03:25:38   -13.309951   -2.19  -1.66   +0.7,-0.0,-0.0
# iter:  10 03:25:57   -13.386309   -2.51  -1.81   +0.6,-0.0,-0.0
# iter:  11 03:26:17   -13.391429   -2.73  -1.89   +0.6,-0.0,-0.0
# iter:  12 03:26:36   -13.464255   -2.77  -1.99   +0.8,-0.0,-0.0
# iter:  13 03:26:56   -13.463068   -3.22  -2.09   +0.9,-0.0,-0.0
# iter:  14 03:27:15   -13.404405   -3.32  -2.06   +0.8,-0.0,-0.0
# iter:  15 03:27:35   -13.638394   -2.57  -2.07   +1.2,+0.0,-0.0
# iter:  16 03:27:54   -13.366202   -2.62  -1.95   +0.9,-0.0,-0.0
# iter:  17 03:28:14   -13.512797   -3.00  -1.97   +1.0,-0.0,-0.0
# iter:  18 03:28:33   -13.614895   -2.57  -1.96   +1.3,+0.0,-0.0
# iter:  19 03:28:52   -13.425443   -3.18  -2.04   +1.1,-0.0,-0.0
# iter:  20 03:29:11   -13.694991   -2.43  -2.14   +1.4,+0.0,-0.0
# iter:  21 03:29:31   -14.230902   -2.35  -2.24   +2.0,+0.0,-0.0
# iter:  22 03:29:50   -13.954967   -2.68  -1.73   +2.0,+0.0,-0.0
# iter:  23 03:30:10   -13.998143   -3.52  -1.59   +2.1,+0.0,-0.0
# iter:  24 03:30:29   -12.867415   -1.34  -1.61   +0.2,-0.0,-0.0
# iter:  25 03:30:49   -14.073786   -0.86  -1.30   +2.1,+0.0,-0.0
# iter:  26 03:31:08   -15.160402   -1.91  -2.14   +3.8,+0.0,-0.0
# iter:  27 03:31:28   -15.181182   -2.59  -2.26   +3.9,+0.0,+0.0
# iter:  28 03:31:47   -15.162960   -3.04  -2.04   +3.9,+0.0,+0.0
# iter:  29 03:32:06   -15.079558   -3.21  -2.03   +3.7,+0.0,+0.0
# iter:  30 03:32:25   -15.097317   -3.73  -2.18   +3.7,+0.0,+0.0
# iter:  31 03:32:45   -15.167544   -2.70  -2.17   +4.0,+0.0,+0.0
# iter:  32 03:33:04   -15.153983   -3.66  -2.32   +3.9,+0.0,+0.0
# iter:  33 03:33:24   -15.171064   -3.62  -2.36   +4.0,+0.0,+0.0
# iter:  34 03:33:43   -15.182906   -3.69  -2.47   +4.1,+0.0,+0.0
# iter:  35 03:34:02   -15.193642   -3.24  -2.53   +4.2,+0.0,+0.0
# iter:  36 03:34:22   -15.193612c  -4.13  -3.21   +4.2,+0.0,+0.0
# iter:  37 03:34:41   -15.193452c  -4.63  -3.25   +4.2,+0.0,+0.0
# iter:  38 03:35:01   -15.193046c  -4.82  -3.29   +4.2,+0.0,+0.0
# iter:  39 03:35:20   -15.193474c  -4.93  -3.55   +4.2,+0.0,+0.0
# iter:  40 03:35:39   -15.193543c  -5.05  -3.62   +4.2,+0.0,+0.0
# iter:  41 03:35:59   -15.193569c  -5.31  -4.06c  +4.2,+0.0,+0.0
# iter:  42 03:36:18   -15.193564c  -5.50  -4.14c  +4.2,+0.0,+0.0
# iter:  43 03:36:37   -15.193559c  -5.65  -4.12c  +4.2,+0.0,+0.0
# iter:  44 03:36:57   -15.193578c  -5.77  -4.18c  +4.2,+0.0,+0.0
# iter:  45 03:37:16   -15.193593c  -5.90  -4.30c  +4.2,+0.0,+0.0
# iter:  46 03:37:36   -15.193630c  -5.94  -4.37c  +4.3,+0.0,+0.0
# iter:  47 03:37:55   -15.193634c  -6.15  -4.42c  +4.3,+0.0,+0.0
# iter:  48 03:38:15   -15.193644c  -6.21  -4.46c  +4.3,+0.0,+0.0
# iter:  49 03:38:34   -15.193645c  -6.40  -4.62c  +4.3,+0.0,+0.0
# iter:  50 03:38:53   -15.193646c  -6.53  -4.65c  +4.3,+0.0,+0.0
# iter:  51 03:39:13   -15.193650c  -6.62  -4.71c  +4.3,+0.0,+0.0
# iter:  52 03:39:32   -15.193651c  -6.76  -4.75c  +4.3,+0.0,+0.0
# iter:  53 03:39:52   -15.193650c  -6.89  -4.78c  +4.3,+0.0,+0.0
# iter:  54 03:40:11   -15.193649c  -7.01  -5.08c  +4.3,+0.0,+0.0
# iter:  55 03:40:31   -15.193649c  -7.13  -5.24c  +4.3,+0.0,+0.0
# iter:  56 03:40:51   -15.193650c  -7.22  -5.33c  +4.3,+0.0,+0.0
# iter:  57 03:41:10   -15.193650c  -7.34  -5.60c  +4.3,+0.0,+0.0
# iter:  58 03:41:29   -15.193650c  -7.45c -5.64c  +4.3,+0.0,+0.0
scf_steps: 58
energies:  # eV
  coulomb:         -17.285176
  zero:              0.089942
  xc:              -18.369768
  external:          0.000000
  kinetic:          20.372350
  spinorbit:         0.000000
  entropy:          -0.001996
  total:           -15.194648
  extrapolated:    -15.193650

dipole moment: [-4.758281, -8.241585, -10.273135]  # |e|*Ang

total magnetic moment: [4.255482, 0.001982, 0.000000]

local magnetic moments: [
  [ 4.247325,  0.000000,  0.000000],  # Mn 0
  [-0.002335, -0.005950,  0.000000],  # I  1
  [-0.002335, -0.005950,  0.000000]]  # I  2


Fermi level: -1.523 eV

kpt = [-0.455, -0.455, 0.000], weight = 0.008:
  Band      eig [eV]   occ [0-1]
     0       -82.391       1.000
   ...
    21        -4.670       1.000
    22        -4.409       1.000
    23        -4.096       1.000
    24        -3.995       1.000
    25        -3.864       1.000
    26        -3.859       1.000
    27        -2.411       1.000
    28        -2.376       1.000
    29        -0.752       0.000
    30        -0.579       0.000
    31        -0.522       0.000
    32         0.196       0.000
    33         0.197       0.000
    34         1.843       0.000
    35         2.558       0.000
    36         3.836       0.000
   ...
    41         4.775       0.000

kpt = [-0.455, -0.364, 0.000], weight = 0.008:
  Band      eig [eV]   occ [0-1]
     0       -82.391       1.000
   ...
    21        -4.504       1.000
    22        -4.397       1.000
    23        -4.131       1.000
    24        -3.984       1.000
    25        -3.823       1.000
    26        -3.708       1.000
    27        -2.490       1.000
    28        -2.250       0.999
    29        -0.730       0.000
    30        -0.663       0.000
    31        -0.529       0.000
    32         0.176       0.000
    33         0.282       0.000
    34         1.586       0.000
    35         2.285       0.000
    36         3.282       0.000
   ...
    41         4.669       0.000

kpt = [-0.455, -0.273, 0.000], weight = 0.008:
  Band      eig [eV]   occ [0-1]
     0       -82.391       1.000
   ...
    21        -4.280       1.000
    22        -4.258       1.000
    23        -4.137       1.000
    24        -3.927       1.000
    25        -3.742       1.000
    26        -3.573       1.000
    27        -2.489       1.000
    28        -2.150       0.998
    29        -0.874       0.002
    30        -0.607       0.000
    31        -0.547       0.000
    32         0.177       0.000
    33         0.336       0.000
    34         1.355       0.000
    35         1.939       0.000
    36         2.792       0.000
   ...
    41         4.387       0.000
(only showing first 3 out of 121 k-points)

Gap: 1.211 eV
Transition (v -> c):
  (s=0, k=77, n=28, [0.18, -0.45, 0.00]) -> (s=0, k=102, n=29, [0.36, -0.18, 0.00])
# Writing to gsq-17.gpw (mode='')

