#  __  _  _
# | _ |_)|_||  |
# |__||  | ||/\| - 24.1.0

User:   s194113@n-62-28-30
Date:   Mon Apr 22 20:19:41 2024
Arch:   x86_64
Pid:    28892
CWD:    /zhome/87/8/147075/10302/10302_NM/MnI2/V_con
Python: 3.8.5
gpaw:   /zhome/87/8/147075/venv-name/gpaw/gpaw (10808453a8)
_gpaw:  /zhome/87/8/147075/venv-name/gpaw/
        _gpaw.cpython-38-x86_64-linux-gnu.so (10808453a8)
ase:    /zhome/87/8/147075/venv-name/ase/ase (version 3.23.0b1-c36115a2db)
numpy:  /zhome/87/8/147075/venv-name/lib/python3.8/site-packages/numpy (version 1.24.4)
scipy:  /zhome/87/8/147075/venv-name/lib/python3.8/site-packages/scipy (version 1.10.1)
libxc:  4.3.4
units:  Angstrom and eV
cores: 12
OpenMP: False
OMP_NUM_THREADS: 1

---
input parameters:
  kpts: 
    density: 6.0
    gamma: True
  magmoms: [[1, 0, 0], [0, 0, 0], [0, 0, 0]]
  mixer: 
    backend: 'pulay'
    beta: 0.05
    method: 'sum'
    nmaxold: 5
    weight: 100
  mode: 
    name: 'pw'
    ecut: 600
    qspiral: array([0.2, 0. , 0. ])
  parallel: 
    kpt: None
    domain: 1
    band: 1
    order: 'kdb'
    stridebands: False
    augment_grids: False
    sl_auto: False
    sl_default: None
    sl_diagonalize: None
    sl_inverse_cholesky: None
    sl_lcao: None
    sl_lrtddft: None
    use_elpa: False
    elpasolver: '2stage'
    buffer_size: None
    gpu: False
  symmetry: 
    point_group: False
    time_reversal: False
  xc: 
    name: 'LDA'

#                        
#                        
#                        
#                        
#                        
#              I         
#                        
#        Mn              
#          I             
#                        
#                        
#                        
#                        
#                        

atoms: [  # symbols, positions [Ang] and initial magnetic moments
  [ Mn, [   0.000000,    0.000000,    3.513573], [ 1.000,  0.000,  0.000]], # 0
  [  I, [   2.083000,    1.202621,    5.027147], [ 0.000,  0.000,  0.000]], # 1
  [  I, [   0.000000,    2.405241,    2.000000], [ 0.000,  0.000,  0.000]]] # 2

cell: [  # Ang
#     x            y            z
  [   4.166000,    0.000000,    0.000000],
  [  -2.083000,    3.607862,    0.000000],
  [   0.000000,   -0.000000,    7.027147]]

periodic: [True      , True      , False     ]
lengths:  [  4.166000,   4.166000,   7.027147]  # Ang
angles:   [ 90.000000,  90.000000, 120.000000]

symmetry:
  number of symmetries: 1
  rotations: [
    [[ 1,  0,  0], [ 0,  1,  0], [ 0,  0,  1]]]

bz sampling:
  number of bz points: 121
  number of ibz points: 121
  monkhorst-pack size: [11, 11, 1]
  monkhorst-pack shift: [0, 0, 0]
  points and weights: [
    [[ -0.45454545,  -0.45454545,   0.00000000], 0.00826446],  # 0
    [[ -0.45454545,  -0.36363636,   0.00000000], 0.00826446],  # 1
    [[ -0.45454545,  -0.27272727,   0.00000000], 0.00826446],  # 2
    [[ -0.45454545,  -0.18181818,   0.00000000], 0.00826446],  # 3
    [[ -0.45454545,  -0.09090909,   0.00000000], 0.00826446],  # 4
    [[ -0.45454545,   0.00000000,   0.00000000], 0.00826446],  # 5
    [[ -0.45454545,   0.09090909,   0.00000000], 0.00826446],  # 6
    [[ -0.45454545,   0.18181818,   0.00000000], 0.00826446],  # 7
    [[ -0.45454545,   0.27272727,   0.00000000], 0.00826446],  # 8
    [[ -0.45454545,   0.36363636,   0.00000000], 0.00826446],  # 9
    # ...
    [[  0.45454545,   0.45454545,   0.00000000], 0.00826446]]  # 120

plane wave coefficients: 3543
cutoff: 600.0 eV

spin-components: 4  # (non-collinear spins)
bands: 42
valence electrons: 29.0
spin-degeneracy: 1
dtype: complex128

memory:
    wave functions: 573_086_976  # bytes  (47_757_248 per core)

parallelization:
    kpt:    12
    domain: 1
    band:   1

density:
  components: 4
  grid points: [24 24 40]
  charge: 0.0  # |e|

potential:
  grid points: [24 24 40]

species:
  Mn:
    name: Manganese
    id: 0d715a8018be061a6e9ea6f2d364ac92
    Z: 25.0
    valence: 15
    core: 10
    charge: 0.0
    file: /zhome/86/d/1666/PAW/gpaw-setups-0.9.20000/Mn.LDA.gz
    compensation charges: {type: gauss,
                           rc: 0.38,
                           lmax: 2}
    cutoffs: {filter: 2.14,
              core: 0.86}
    valence states:
      #              energy  rcut
      - 3s(2.00)   -85.387   1.275
      - 4s(2.00)    -5.282   1.275
      - 3p(6.00)   -54.493   1.281
      - 4p(0.00)    -1.471   1.281
      - 3d(5.00)    -7.009   1.138
      -  d          20.203   1.138
  
    # Using partial waves for Mn as LCAO basis

  I:
    name: Iodine
    id: b559721c0c096a7b4c8fc0e0f4de5cf4
    Z: 53.0
    valence: 7
    core: 46
    charge: 0.0
    file: /zhome/86/d/1666/PAW/gpaw-setups-0.9.20000/I.LDA.gz
    compensation charges: {type: gauss,
                           rc: 0.37,
                           lmax: 2}
    cutoffs: {filter: 2.06,
              core: 2.90}
    valence states:
      #              energy  rcut
      - 5s(2.00)   -17.626   1.164
      - 5p(5.00)    -7.241   1.164
      -  s           9.585   1.164
      -  p          19.970   1.164
      -  d           0.000   1.164
  
    # Using partial waves for I as LCAO basis

Reference energy: -418222.442431  # eV

eigensolver:
  name: 'Davidson'
  niter: 2
  converge_bands: 'occupied'
Density mixing:
  Method: sum
  Backend: pulay
  Linear mixing parameter: 0.05
  old densities: 5
  Damping of long wavelength oscillations: 100
occupation numbers:
  Fermi-Dirac:
    width: 0.1000  # eV
  

poisson solver:
  ecut: 4800.0  # eV

xc functional:
  name: None

convergence criteria:
- Maximum [total energy] change in last 3 cyles: 0.0005 eV / valence electron
- Maximum integral of absolute [dens]ity change: 0.0001 electrons / valence electron
- Maximum integral of absolute [eigenst]ate change: 4e-08 eV^2 / valence electron
maximum number of iterations: 333

#      iter     time        total  log10-change:
#                          energy   eigst   dens
# iter:   1 20:19:58   -15.201618                  +1.0,+0.0,+0.0
# iter:   2 20:20:08   -13.890107   -0.56  -1.08   +0.8,-0.0,-0.0
# iter:   3 20:20:17   -13.739324   -1.19  -1.40   +1.0,-0.0,+0.0
# iter:   4 20:20:26   -13.916707   -1.32  -1.54   +1.3,-0.0,+0.0
# iter:   5 20:20:35   -13.960781   -2.68  -1.63   +1.9,-0.0,+0.0
# iter:   6 20:20:44   -14.014651   -3.32  -1.63   +2.1,-0.0,+0.0
# iter:   7 20:20:53   -14.258007   -1.79  -1.58   +2.6,-0.0,+0.0
# iter:   8 20:21:02   -14.362071   -2.30  -1.58   +2.9,+0.0,+0.0
# iter:   9 20:21:11   -14.246492   -3.52  -1.60   +2.8,-0.0,+0.0
# iter:  10 20:21:20   -14.538831   -3.42  -1.54   +3.1,+0.0,+0.0
# iter:  11 20:21:29   -15.110190   -1.66  -1.58   +4.1,+0.0,+0.0
# iter:  12 20:21:38   -15.193811   -2.29  -2.12   +4.3,+0.0,+0.0
# iter:  13 20:21:47   -15.284424   -2.34  -2.15   +4.8,+0.0,+0.0
# iter:  14 20:21:56   -15.256897   -3.67  -2.54   +4.5,+0.0,+0.0
# iter:  15 20:22:05   -15.288426   -3.12  -2.39   +4.8,+0.0,+0.0
# iter:  16 20:22:13   -15.287863   -4.49  -2.64   +4.7,+0.0,+0.0
# iter:  17 20:22:22   -15.289643c  -4.73  -2.71   +4.8,+0.0,+0.0
# iter:  18 20:22:31   -15.289649c  -4.12  -2.79   +4.8,+0.0,+0.0
# iter:  19 20:22:40   -15.289542c  -4.77  -2.97   +4.8,+0.0,+0.0
# iter:  20 20:22:49   -15.289764c  -4.85  -3.04   +4.8,+0.0,+0.0
# iter:  21 20:22:58   -15.289776c  -5.48  -3.35   +4.8,+0.0,+0.0
# iter:  22 20:23:07   -15.289791c  -5.56  -3.36   +4.8,+0.0,+0.0
# iter:  23 20:23:15   -15.289725c  -4.74  -3.49   +4.8,+0.0,+0.0
# iter:  24 20:23:24   -15.289742c  -6.12  -3.67   +4.8,+0.0,+0.0
# iter:  25 20:23:33   -15.289755c  -6.13  -3.89   +4.8,+0.0,+0.0
# iter:  26 20:23:42   -15.289759c  -6.91  -4.17c  +4.8,+0.0,+0.0
# iter:  27 20:23:51   -15.289750c  -7.17  -4.24c  +4.8,+0.0,+0.0
# iter:  28 20:24:00   -15.289753c  -7.68c -4.39c  +4.8,+0.0,+0.0
scf_steps: 28
energies:  # eV
  coulomb:         -16.723460
  zero:              0.087393
  xc:              -18.453402
  external:          0.000000
  kinetic:          19.801339
  spinorbit:         0.000000
  entropy:          -0.003248
  total:           -15.291377
  extrapolated:    -15.289753

dipole moment: [-5.424038, -9.610203, -5.976851]  # |e|*Ang

total magnetic moment: [4.798330, 0.013390, 0.000000]

local magnetic moments: [
  [ 4.289009, -0.000000,  0.000000],  # Mn 0
  [ 0.046752, -0.054281,  0.000000],  # I  1
  [ 0.066072, -0.027690,  0.000000]]  # I  2


Fermi level: 3.484 eV

kpt = [-0.455, -0.455, 0.000], weight = 0.008:
  Band      eig [eV]   occ [0-1]
     0       -77.423       1.000
   ...
    21         0.545       1.000
    22         0.705       1.000
    23         0.760       1.000
    24         0.822       1.000
    25         1.039       1.000
    26         1.130       1.000
    27         2.647       1.000
    28         2.802       0.999
    29         4.055       0.003
    30         4.406       0.000
    31         4.455       0.000
    32         5.290       0.000
    33         5.351       0.000
    34         6.225       0.000
    35         7.135       0.000
    36         7.649       0.000
   ...
    41        10.033       0.000

kpt = [-0.455, -0.364, 0.000], weight = 0.008:
  Band      eig [eV]   occ [0-1]
     0       -77.423       1.000
   ...
    21         0.487       1.000
    22         0.672       1.000
    23         0.770       1.000
    24         0.959       1.000
    25         1.047       1.000
    26         1.246       1.000
    27         2.540       1.000
    28         2.660       1.000
    29         4.173       0.001
    30         4.410       0.000
    31         4.476       0.000
    32         5.185       0.000
    33         5.276       0.000
    34         6.438       0.000
    35         7.139       0.000
    36         8.044       0.000
   ...
    41        10.208       0.000

kpt = [-0.455, -0.273, 0.000], weight = 0.008:
  Band      eig [eV]   occ [0-1]
     0       -77.423       1.000
   ...
    21         0.487       1.000
    22         0.653       1.000
    23         0.818       1.000
    24         0.941       1.000
    25         1.144       1.000
    26         1.381       1.000
    27         2.381       1.000
    28         2.634       1.000
    29         4.262       0.000
    30         4.429       0.000
    31         4.490       0.000
    32         5.063       0.000
    33         5.260       0.000
    34         6.653       0.000
    35         7.344       0.000
    36         8.881       0.000
   ...
    41        10.120       0.000
(only showing first 3 out of 121 k-points)

Gap: 0.817 eV
Transition (v -> c):
  (s=0, k=60, n=28, [0.00, 0.00, 0.00]) -> (s=0, k=5, n=29, [-0.45, 0.00, 0.00])
# Writing to gsq-04.gpw (mode='')

---

timing:  # [seconds]
  Total: 259.294  # ━━━━━━━━━━━━━━━━━━━━━━━━━━━━━━━━━━━━━━━━━━━━━━━━━━━━━━━━━
  Init:    8.894  # ━━
  SCF:   250.122  # ━━━━━━━━━━━━━━━━━━━━━━━━━━━━━━━━━━━━━━━━━━━━━━━━━━━━━━━

Max RSS: 502.102  # MiB
