#  __  _  _
# | _ |_)|_||  |
# |__||  | ||/\| - 24.1.0

User:   s194113@n-62-28-29
Date:   Tue Apr 23 00:03:30 2024
Arch:   x86_64
Pid:    26782
CWD:    /zhome/87/8/147075/10302/10302_NM/MnI2/V_con
Python: 3.8.5
gpaw:   /zhome/87/8/147075/venv-name/gpaw/gpaw (10808453a8)
_gpaw:  /zhome/87/8/147075/venv-name/gpaw/
        _gpaw.cpython-38-x86_64-linux-gnu.so (10808453a8)
ase:    /zhome/87/8/147075/venv-name/ase/ase (version 3.23.0b1-c36115a2db)
numpy:  /zhome/87/8/147075/venv-name/lib/python3.8/site-packages/numpy (version 1.24.4)
scipy:  /zhome/87/8/147075/venv-name/lib/python3.8/site-packages/scipy (version 1.10.1)
libxc:  4.3.4
units:  Angstrom and eV
cores: 12
OpenMP: False
OMP_NUM_THREADS: 1

---
input parameters:
  kpts: 
    density: 6.0
    gamma: True
  magmoms: [[1, 0, 0], [0, 0, 0], [0, 0, 0]]
  mixer: 
    backend: 'pulay'
    beta: 0.05
    method: 'sum'
    nmaxold: 5
    weight: 100
  mode: 
    name: 'pw'
    ecut: 600
    qspiral: array([0.45, 0.  , 0.  ])
  parallel: 
    kpt: None
    domain: 1
    band: 1
    order: 'kdb'
    stridebands: False
    augment_grids: False
    sl_auto: False
    sl_default: None
    sl_diagonalize: None
    sl_inverse_cholesky: None
    sl_lcao: None
    sl_lrtddft: None
    use_elpa: False
    elpasolver: '2stage'
    buffer_size: None
    gpu: False
  symmetry: 
    point_group: False
    time_reversal: False
  xc: 
    name: 'LDA'

#                        
#                        
#                        
#                        
#                        
#              I         
#                        
#        Mn              
#          I             
#                        
#                        
#                        
#                        
#                        

atoms: [  # symbols, positions [Ang] and initial magnetic moments
  [ Mn, [   0.000000,    0.000000,    8.513573], [ 1.000,  0.000,  0.000]], # 0
  [  I, [   2.083000,    1.202621,   10.027147], [ 0.000,  0.000,  0.000]], # 1
  [  I, [   0.000000,    2.405241,    7.000000], [ 0.000,  0.000,  0.000]]] # 2

cell: [  # Ang
#     x            y            z
  [   4.166000,    0.000000,    0.000000],
  [  -2.083000,    3.607862,    0.000000],
  [   0.000000,   -0.000000,   17.027147]]

periodic: [True      , True      , False     ]
lengths:  [  4.166000,   4.166000,  17.027147]  # Ang
angles:   [ 90.000000,  90.000000, 120.000000]

symmetry:
  number of symmetries: 1
  rotations: [
    [[ 1,  0,  0], [ 0,  1,  0], [ 0,  0,  1]]]

bz sampling:
  number of bz points: 121
  number of ibz points: 121
  monkhorst-pack size: [11, 11, 1]
  monkhorst-pack shift: [0, 0, 0]
  points and weights: [
    [[ -0.45454545,  -0.45454545,   0.00000000], 0.00826446],  # 0
    [[ -0.45454545,  -0.36363636,   0.00000000], 0.00826446],  # 1
    [[ -0.45454545,  -0.27272727,   0.00000000], 0.00826446],  # 2
    [[ -0.45454545,  -0.18181818,   0.00000000], 0.00826446],  # 3
    [[ -0.45454545,  -0.09090909,   0.00000000], 0.00826446],  # 4
    [[ -0.45454545,   0.00000000,   0.00000000], 0.00826446],  # 5
    [[ -0.45454545,   0.09090909,   0.00000000], 0.00826446],  # 6
    [[ -0.45454545,   0.18181818,   0.00000000], 0.00826446],  # 7
    [[ -0.45454545,   0.27272727,   0.00000000], 0.00826446],  # 8
    [[ -0.45454545,   0.36363636,   0.00000000], 0.00826446],  # 9
    # ...
    [[  0.45454545,   0.45454545,   0.00000000], 0.00826446]]  # 120

plane wave coefficients: 8581
cutoff: 600.0 eV

spin-components: 4  # (non-collinear spins)
bands: 42
valence electrons: 29.0
spin-degeneracy: 1
dtype: complex128

memory:
    wave functions: 1_389_459_456  # bytes  (115_788_288 per core)

parallelization:
    kpt:    12
    domain: 1
    band:   1

density:
  components: 4
  grid points: [24 24 98]
  charge: 0.0  # |e|

potential:
  grid points: [24 24 98]

species:
  Mn:
    name: Manganese
    id: 0d715a8018be061a6e9ea6f2d364ac92
    Z: 25.0
    valence: 15
    core: 10
    charge: 0.0
    file: /zhome/86/d/1666/PAW/gpaw-setups-0.9.20000/Mn.LDA.gz
    compensation charges: {type: gauss,
                           rc: 0.38,
                           lmax: 2}
    cutoffs: {filter: 2.14,
              core: 0.86}
    valence states:
      #              energy  rcut
      - 3s(2.00)   -85.387   1.275
      - 4s(2.00)    -5.282   1.275
      - 3p(6.00)   -54.493   1.281
      - 4p(0.00)    -1.471   1.281
      - 3d(5.00)    -7.009   1.138
      -  d          20.203   1.138
  
    # Using partial waves for Mn as LCAO basis

  I:
    name: Iodine
    id: b559721c0c096a7b4c8fc0e0f4de5cf4
    Z: 53.0
    valence: 7
    core: 46
    charge: 0.0
    file: /zhome/86/d/1666/PAW/gpaw-setups-0.9.20000/I.LDA.gz
    compensation charges: {type: gauss,
                           rc: 0.37,
                           lmax: 2}
    cutoffs: {filter: 2.06,
              core: 2.90}
    valence states:
      #              energy  rcut
      - 5s(2.00)   -17.626   1.164
      - 5p(5.00)    -7.241   1.164
      -  s           9.585   1.164
      -  p          19.970   1.164
      -  d           0.000   1.164
  
    # Using partial waves for I as LCAO basis

Reference energy: -418222.442431  # eV

eigensolver:
  name: 'Davidson'
  niter: 2
  converge_bands: 'occupied'
Density mixing:
  Method: sum
  Backend: pulay
  Linear mixing parameter: 0.05
  old densities: 5
  Damping of long wavelength oscillations: 100
occupation numbers:
  Fermi-Dirac:
    width: 0.1000  # eV
  

poisson solver:
  ecut: 4800.0  # eV

xc functional:
  name: None

convergence criteria:
- Maximum [total energy] change in last 3 cyles: 0.0005 eV / valence electron
- Maximum integral of absolute [dens]ity change: 0.0001 electrons / valence electron
- Maximum integral of absolute [eigenst]ate change: 4e-08 eV^2 / valence electron
maximum number of iterations: 333

#      iter     time        total  log10-change:
#                          energy   eigst   dens
# iter:   1 00:04:01   -14.846841                  +1.0,+0.0,+0.0
# iter:   2 00:04:21   -13.816992   -0.20  -1.10   +0.9,-0.0,+0.0
# iter:   3 00:04:41   -13.654280   -0.75  -1.38   +1.1,-0.0,-0.0
# iter:   4 00:05:00   -13.859386   -0.98  -1.55   +1.4,-0.0,-0.0
# iter:   5 00:05:20   -13.934207   -1.54  -1.65   +1.8,-0.0,-0.0
# iter:   6 00:05:40   -14.151237   -1.72  -1.62   +2.0,-0.0,-0.0
# iter:   7 00:06:00   -14.257706   -2.05  -1.49   +2.2,-0.0,-0.0
# iter:   8 00:06:20   -14.739671   -0.84  -1.46   +3.2,+0.0,-0.0
# iter:   9 00:06:39   -14.781787   -2.31  -2.01   +3.2,+0.0,+0.0
# iter:  10 00:06:59   -14.902392   -2.16  -1.85   +3.4,+0.0,-0.0
# iter:  11 00:07:19   -15.238637   -1.43  -2.05   +4.6,+0.0,-0.0
# iter:  12 00:07:38   -15.084157   -1.93  -1.76   +3.8,+0.0,-0.0
# iter:  13 00:07:58   -15.180691   -2.28  -2.07   +4.5,+0.0,-0.0
# iter:  14 00:08:18   -15.183284   -3.32  -2.65   +4.3,+0.0,-0.0
# iter:  15 00:08:38   -15.184717c  -3.68  -2.87   +4.3,+0.0,+0.0
# iter:  16 00:08:58   -15.185945c  -3.80  -2.97   +4.3,+0.0,-0.0
# iter:  17 00:09:17   -15.186234c  -4.01  -3.13   +4.3,+0.0,+0.0
# iter:  18 00:09:37   -15.186399c  -4.18  -3.23   +4.4,+0.0,+0.0
# iter:  19 00:09:56   -15.186651c  -4.37  -3.48   +4.4,+0.0,+0.0
# iter:  20 00:10:16   -15.186697c  -4.56  -3.53   +4.4,+0.0,+0.0
# iter:  21 00:10:36   -15.186758c  -4.70  -3.59   +4.4,+0.0,+0.0
# iter:  22 00:10:56   -15.186757c  -4.91  -3.83   +4.4,+0.0,+0.0
# iter:  23 00:11:15   -15.186742c  -5.09  -3.85   +4.4,+0.0,+0.0
# iter:  24 00:11:35   -15.186737c  -5.26  -3.86   +4.4,+0.0,+0.0
# iter:  25 00:11:54   -15.186710c  -5.41  -3.87   +4.4,+0.0,+0.0
# iter:  26 00:12:14   -15.186702c  -5.57  -3.99   +4.4,+0.0,+0.0
# iter:  27 00:12:33   -15.186703c  -5.67  -4.02c  +4.4,+0.0,+0.0
# iter:  28 00:12:53   -15.186714c  -5.83  -4.10c  +4.4,+0.0,+0.0
# iter:  29 00:13:12   -15.186734c  -5.93  -4.16c  +4.4,+0.0,+0.0
# iter:  30 00:13:32   -15.186739c  -6.07  -4.25c  +4.4,+0.0,+0.0
# iter:  31 00:13:51   -15.186749c  -6.06  -4.30c  +4.4,+0.0,+0.0
# iter:  32 00:14:11   -15.186749c  -6.34  -4.62c  +4.4,+0.0,+0.0
# iter:  33 00:14:30   -15.186751c  -6.48  -4.64c  +4.4,+0.0,+0.0
# iter:  34 00:14:50   -15.186753c  -6.62  -4.71c  +4.4,+0.0,+0.0
# iter:  35 00:15:09   -15.186755c  -6.74  -4.82c  +4.4,+0.0,+0.0
# iter:  36 00:15:29   -15.186755c  -6.86  -4.95c  +4.4,+0.0,+0.0
# iter:  37 00:15:48   -15.186755c  -7.01  -4.96c  +4.4,+0.0,+0.0
# iter:  38 00:16:08   -15.186755c  -7.12  -5.00c  +4.4,+0.0,+0.0
# iter:  39 00:16:27   -15.186755c  -7.27  -5.14c  +4.4,+0.0,+0.0
# iter:  40 00:16:47   -15.186754c  -7.39  -5.17c  +4.4,+0.0,+0.0
# iter:  41 00:17:07   -15.186754c  -7.51c -5.69c  +4.4,+0.0,+0.0
scf_steps: 41
energies:  # eV
  coulomb:         -17.434847
  zero:              0.089372
  xc:              -18.394930
  external:          0.000000
  kinetic:          20.555025
  spinorbit:         0.000000
  entropy:          -0.002747
  total:           -15.188128
  extrapolated:    -15.186754

dipole moment: [-4.679939, -8.752579, -11.128681]  # |e|*Ang

total magnetic moment: [4.380170, 0.003927, 0.000000]

local magnetic moments: [
  [ 4.256674, -0.000000,  0.000000],  # Mn 0
  [-0.021304, -0.015570,  0.000000],  # I  1
  [ 0.025073, -0.008225,  0.000000]]  # I  2


Fermi level: -1.516 eV

kpt = [-0.455, -0.455, 0.000], weight = 0.008:
  Band      eig [eV]   occ [0-1]
     0       -82.405       1.000
   ...
    21        -4.430       1.000
    22        -4.321       1.000
    23        -4.200       1.000
    24        -4.096       1.000
    25        -3.765       1.000
    26        -3.679       1.000
    27        -2.457       1.000
    28        -2.249       0.999
    29        -0.770       0.001
    30        -0.621       0.000
    31        -0.577       0.000
    32         0.135       0.000
    33         0.325       0.000
    34         1.642       0.000
    35         2.393       0.000
    36         3.369       0.000
   ...
    41         4.828       0.000

kpt = [-0.455, -0.364, 0.000], weight = 0.008:
  Band      eig [eV]   occ [0-1]
     0       -82.405       1.000
   ...
    21        -4.434       1.000
    22        -4.202       1.000
    23        -4.152       1.000
    24        -3.999       1.000
    25        -3.690       1.000
    26        -3.633       1.000
    27        -2.537       1.000
    28        -2.174       0.999
    29        -0.787       0.001
    30        -0.632       0.000
    31        -0.547       0.000
    32         0.126       0.000
    33         0.314       0.000
    34         1.499       0.000
    35         2.263       0.000
    36         2.949       0.000
   ...
    41         4.824       0.000

kpt = [-0.455, -0.273, 0.000], weight = 0.008:
  Band      eig [eV]   occ [0-1]
     0       -82.405       1.000
   ...
    21        -4.298       1.000
    22        -4.146       1.000
    23        -4.059       1.000
    24        -3.858       1.000
    25        -3.641       1.000
    26        -3.509       1.000
    27        -2.645       1.000
    28        -2.129       0.998
    29        -0.771       0.001
    30        -0.596       0.000
    31        -0.567       0.000
    32         0.026       0.000
    33         0.316       0.000
    34         1.698       0.000
    35         2.356       0.000
    36         2.990       0.000
   ...
    41         4.817       0.000
(only showing first 3 out of 121 k-points)

Gap: 0.935 eV
Transition (v -> c):
  (s=0, k=60, n=28, [0.00, 0.00, 0.00]) -> (s=0, k=115, n=29, [0.45, 0.00, 0.00])
# Writing to gsq-09.gpw (mode='')

---

timing:  # [seconds]
  Total: 817.372  # ━━━━━━━━━━━━━━━━━━━━━━━━━━━━━━━━━━━━━━━━━━━━━━━━━━━━━━━━━
  Init:   12.439  # ━
  SCF:   804.451  # ━━━━━━━━━━━━━━━━━━━━━━━━━━━━━━━━━━━━━━━━━━━━━━━━━━━━━━━━

Max RSS: 627.227  # MiB
