#  __  _  _
# | _ |_)|_||  |
# |__||  | ||/\| - 24.1.0

User:   s194113@n-62-28-29
Date:   Mon Apr 22 23:23:15 2024
Arch:   x86_64
Pid:    26782
CWD:    /zhome/87/8/147075/10302/10302_NM/MnI2/V_con
Python: 3.8.5
gpaw:   /zhome/87/8/147075/venv-name/gpaw/gpaw (10808453a8)
_gpaw:  /zhome/87/8/147075/venv-name/gpaw/
        _gpaw.cpython-38-x86_64-linux-gnu.so (10808453a8)
ase:    /zhome/87/8/147075/venv-name/ase/ase (version 3.23.0b1-c36115a2db)
numpy:  /zhome/87/8/147075/venv-name/lib/python3.8/site-packages/numpy (version 1.24.4)
scipy:  /zhome/87/8/147075/venv-name/lib/python3.8/site-packages/scipy (version 1.10.1)
libxc:  4.3.4
units:  Angstrom and eV
cores: 12
OpenMP: False
OMP_NUM_THREADS: 1

---
input parameters:
  kpts: 
    density: 6.0
    gamma: True
  magmoms: [[1, 0, 0], [0, 0, 0], [0, 0, 0]]
  mixer: 
    backend: 'pulay'
    beta: 0.05
    method: 'sum'
    nmaxold: 5
    weight: 100
  mode: 
    name: 'pw'
    ecut: 600
    qspiral: array([0.3, 0. , 0. ])
  parallel: 
    kpt: None
    domain: 1
    band: 1
    order: 'kdb'
    stridebands: False
    augment_grids: False
    sl_auto: False
    sl_default: None
    sl_diagonalize: None
    sl_inverse_cholesky: None
    sl_lcao: None
    sl_lrtddft: None
    use_elpa: False
    elpasolver: '2stage'
    buffer_size: None
    gpu: False
  symmetry: 
    point_group: False
    time_reversal: False
  xc: 
    name: 'LDA'

#                        
#                        
#                        
#                        
#                        
#              I         
#                        
#        Mn              
#          I             
#                        
#                        
#                        
#                        
#                        

atoms: [  # symbols, positions [Ang] and initial magnetic moments
  [ Mn, [   0.000000,    0.000000,    8.513573], [ 1.000,  0.000,  0.000]], # 0
  [  I, [   2.083000,    1.202621,   10.027147], [ 0.000,  0.000,  0.000]], # 1
  [  I, [   0.000000,    2.405241,    7.000000], [ 0.000,  0.000,  0.000]]] # 2

cell: [  # Ang
#     x            y            z
  [   4.166000,    0.000000,    0.000000],
  [  -2.083000,    3.607862,    0.000000],
  [   0.000000,   -0.000000,   17.027147]]

periodic: [True      , True      , False     ]
lengths:  [  4.166000,   4.166000,  17.027147]  # Ang
angles:   [ 90.000000,  90.000000, 120.000000]

symmetry:
  number of symmetries: 1
  rotations: [
    [[ 1,  0,  0], [ 0,  1,  0], [ 0,  0,  1]]]

bz sampling:
  number of bz points: 121
  number of ibz points: 121
  monkhorst-pack size: [11, 11, 1]
  monkhorst-pack shift: [0, 0, 0]
  points and weights: [
    [[ -0.45454545,  -0.45454545,   0.00000000], 0.00826446],  # 0
    [[ -0.45454545,  -0.36363636,   0.00000000], 0.00826446],  # 1
    [[ -0.45454545,  -0.27272727,   0.00000000], 0.00826446],  # 2
    [[ -0.45454545,  -0.18181818,   0.00000000], 0.00826446],  # 3
    [[ -0.45454545,  -0.09090909,   0.00000000], 0.00826446],  # 4
    [[ -0.45454545,   0.00000000,   0.00000000], 0.00826446],  # 5
    [[ -0.45454545,   0.09090909,   0.00000000], 0.00826446],  # 6
    [[ -0.45454545,   0.18181818,   0.00000000], 0.00826446],  # 7
    [[ -0.45454545,   0.27272727,   0.00000000], 0.00826446],  # 8
    [[ -0.45454545,   0.36363636,   0.00000000], 0.00826446],  # 9
    # ...
    [[  0.45454545,   0.45454545,   0.00000000], 0.00826446]]  # 120

plane wave coefficients: 8581
cutoff: 600.0 eV

spin-components: 4  # (non-collinear spins)
bands: 42
valence electrons: 29.0
spin-degeneracy: 1
dtype: complex128

memory:
    wave functions: 1_389_459_456  # bytes  (115_788_288 per core)

parallelization:
    kpt:    12
    domain: 1
    band:   1

density:
  components: 4
  grid points: [24 24 98]
  charge: 0.0  # |e|

potential:
  grid points: [24 24 98]

species:
  Mn:
    name: Manganese
    id: 0d715a8018be061a6e9ea6f2d364ac92
    Z: 25.0
    valence: 15
    core: 10
    charge: 0.0
    file: /zhome/86/d/1666/PAW/gpaw-setups-0.9.20000/Mn.LDA.gz
    compensation charges: {type: gauss,
                           rc: 0.38,
                           lmax: 2}
    cutoffs: {filter: 2.14,
              core: 0.86}
    valence states:
      #              energy  rcut
      - 3s(2.00)   -85.387   1.275
      - 4s(2.00)    -5.282   1.275
      - 3p(6.00)   -54.493   1.281
      - 4p(0.00)    -1.471   1.281
      - 3d(5.00)    -7.009   1.138
      -  d          20.203   1.138
  
    # Using partial waves for Mn as LCAO basis

  I:
    name: Iodine
    id: b559721c0c096a7b4c8fc0e0f4de5cf4
    Z: 53.0
    valence: 7
    core: 46
    charge: 0.0
    file: /zhome/86/d/1666/PAW/gpaw-setups-0.9.20000/I.LDA.gz
    compensation charges: {type: gauss,
                           rc: 0.37,
                           lmax: 2}
    cutoffs: {filter: 2.06,
              core: 2.90}
    valence states:
      #              energy  rcut
      - 5s(2.00)   -17.626   1.164
      - 5p(5.00)    -7.241   1.164
      -  s           9.585   1.164
      -  p          19.970   1.164
      -  d           0.000   1.164
  
    # Using partial waves for I as LCAO basis

Reference energy: -418222.442431  # eV

eigensolver:
  name: 'Davidson'
  niter: 2
  converge_bands: 'occupied'
Density mixing:
  Method: sum
  Backend: pulay
  Linear mixing parameter: 0.05
  old densities: 5
  Damping of long wavelength oscillations: 100
occupation numbers:
  Fermi-Dirac:
    width: 0.1000  # eV
  

poisson solver:
  ecut: 4800.0  # eV

xc functional:
  name: None

convergence criteria:
- Maximum [total energy] change in last 3 cyles: 0.0005 eV / valence electron
- Maximum integral of absolute [dens]ity change: 0.0001 electrons / valence electron
- Maximum integral of absolute [eigenst]ate change: 4e-08 eV^2 / valence electron
maximum number of iterations: 333

#      iter     time        total  log10-change:
#                          energy   eigst   dens
# iter:   1 23:23:46   -15.019129                  +1.0,+0.0,+0.0
# iter:   2 23:24:06   -13.819117   -0.37  -1.10   +0.9,-0.0,+0.0
# iter:   3 23:24:26   -13.632381   -0.85  -1.38   +1.0,-0.0,+0.0
# iter:   4 23:24:46   -13.821382   -1.01  -1.54   +1.3,-0.0,+0.0
# iter:   5 23:25:06   -13.878937   -1.67  -1.64   +1.8,-0.0,-0.0
# iter:   6 23:25:26   -14.049301   -1.89  -1.62   +2.1,-0.0,+0.0
# iter:   7 23:25:46   -14.172747   -2.17  -1.50   +2.4,-0.0,+0.0
# iter:   8 23:26:06   -14.742548   -0.91  -1.48   +3.4,+0.0,+0.0
# iter:   9 23:26:25   -14.817357   -2.17  -1.94   +3.6,+0.0,-0.0
# iter:  10 23:26:45   -14.831471   -2.29  -1.92   +3.6,+0.0,-0.0
# iter:  11 23:27:05   -14.284744   -1.99  -2.02   +2.9,+0.0,+0.0
# iter:  12 23:27:24   -15.262561   -1.37  -1.76   +4.3,+0.0,-0.0
# iter:  13 23:27:44   -15.268349   -2.48  -1.93   +4.5,+0.0,+0.0
# iter:  14 23:28:04   -15.198788   -2.61  -1.95   +4.3,+0.0,-0.0
# iter:  15 23:28:23   -15.157003   -2.64  -2.11   +4.2,+0.0,-0.0
# iter:  16 23:28:43   -15.195667   -3.06  -2.12   +4.3,+0.0,-0.0
# iter:  17 23:29:02   -15.202018   -3.68  -2.23   +4.4,+0.0,-0.0
# iter:  18 23:29:22   -15.180639   -2.50  -2.24   +4.6,+0.0,-0.0
# iter:  19 23:29:42   -15.180957   -3.45  -2.40   +4.6,+0.0,-0.0
# iter:  20 23:30:01   -15.180929c  -3.61  -2.58   +4.6,+0.0,-0.0
# iter:  21 23:30:21   -15.180923c  -3.90  -2.67   +4.6,+0.0,-0.0
# iter:  22 23:30:40   -15.181611c  -3.86  -3.02   +4.6,+0.0,-0.0
# iter:  23 23:31:00   -15.181480c  -4.42  -3.06   +4.6,+0.0,-0.0
# iter:  24 23:31:19   -15.181001c  -4.46  -3.12   +4.6,+0.0,-0.0
# iter:  25 23:31:39   -15.181009c  -4.86  -3.28   +4.6,+0.0,-0.0
# iter:  26 23:31:59   -15.180829c  -4.84  -3.30   +4.6,+0.0,-0.0
# iter:  27 23:32:18   -15.180806c  -5.14  -3.40   +4.6,+0.0,-0.0
# iter:  28 23:32:37   -15.180925c  -5.00  -3.43   +4.6,+0.0,-0.0
# iter:  29 23:32:57   -15.180935c  -5.42  -3.55   +4.6,+0.0,-0.0
# iter:  30 23:33:16   -15.180869c  -5.37  -3.53   +4.6,+0.0,-0.0
# iter:  31 23:33:36   -15.180830c  -4.99  -3.65   +4.6,+0.0,-0.0
# iter:  32 23:33:55   -15.180822c  -5.92  -3.81   +4.6,+0.0,-0.0
# iter:  33 23:34:15   -15.180833c  -5.55  -3.89   +4.6,+0.0,-0.0
# iter:  34 23:34:34   -15.180831c  -5.54  -3.97   +4.6,+0.0,-0.0
# iter:  35 23:34:54   -15.180839c  -6.25  -3.92   +4.6,+0.0,-0.0
# iter:  36 23:35:13   -15.180842c  -6.41  -4.52c  +4.6,+0.0,-0.0
# iter:  37 23:35:33   -15.180843c  -6.72  -4.71c  +4.6,+0.0,-0.0
# iter:  38 23:35:52   -15.180844c  -6.87  -4.74c  +4.6,+0.0,-0.0
# iter:  39 23:36:11   -15.180847c  -6.87  -4.78c  +4.6,+0.0,-0.0
# iter:  40 23:36:31   -15.180846c  -7.08  -5.00c  +4.6,+0.0,-0.0
# iter:  41 23:36:50   -15.180846c  -7.25  -5.09c  +4.6,+0.0,-0.0
# iter:  42 23:37:10   -15.180847c  -7.36  -5.15c  +4.6,+0.0,-0.0
# iter:  43 23:37:29   -15.180846c  -7.46c -5.24c  +4.6,+0.0,-0.0
scf_steps: 43
energies:  # eV
  coulomb:         -17.634115
  zero:              0.088709
  xc:              -18.429095
  external:          0.000000
  kinetic:          20.794955
  spinorbit:         0.000000
  entropy:          -0.002599
  total:           -15.182146
  extrapolated:    -15.180846

dipole moment: [-5.140377, -9.262922, -13.389622]  # |e|*Ang

total magnetic moment: [4.629948, 0.012820, -0.000000]

local magnetic moments: [
  [ 4.269636,  0.000000, -0.000000],  # Mn 0
  [ 0.011267, -0.051375, -0.000000],  # I  1
  [ 0.045378, -0.026592, -0.000000]]  # I  2


Fermi level: -1.547 eV

kpt = [-0.455, -0.455, 0.000], weight = 0.008:
  Band      eig [eV]   occ [0-1]
     0       -82.429       1.000
   ...
    21        -4.437       1.000
    22        -4.313       1.000
    23        -4.213       1.000
    24        -4.145       1.000
    25        -3.841       1.000
    26        -3.800       1.000
    27        -2.369       1.000
    28        -2.234       0.999
    29        -0.900       0.002
    30        -0.614       0.000
    31        -0.574       0.000
    32         0.216       0.000
    33         0.347       0.000
    34         1.296       0.000
    35         2.342       0.000
    36         2.852       0.000
   ...
    41         4.819       0.000

kpt = [-0.455, -0.364, 0.000], weight = 0.008:
  Band      eig [eV]   occ [0-1]
     0       -82.429       1.000
   ...
    21        -4.504       1.000
    22        -4.265       1.000
    23        -4.190       1.000
    24        -4.027       1.000
    25        -3.840       1.000
    26        -3.722       1.000
    27        -2.456       1.000
    28        -2.237       0.999
    29        -0.847       0.001
    30        -0.619       0.000
    31        -0.550       0.000
    32         0.208       0.000
    33         0.270       0.000
    34         1.366       0.000
    35         2.366       0.000
    36         2.847       0.000
   ...
    41         4.913       0.000

kpt = [-0.455, -0.273, 0.000], weight = 0.008:
  Band      eig [eV]   occ [0-1]
     0       -82.429       1.000
   ...
    21        -4.507       1.000
    22        -4.233       1.000
    23        -4.149       1.000
    24        -3.950       1.000
    25        -3.791       1.000
    26        -3.620       1.000
    27        -2.542       1.000
    28        -2.273       0.999
    29        -0.740       0.000
    30        -0.627       0.000
    31        -0.556       0.000
    32         0.089       0.000
    33         0.253       0.000
    34         1.775       0.000
    35         2.444       0.000
    36         3.311       0.000
   ...
    41         4.722       0.000
(only showing first 3 out of 121 k-points)

Gap: 0.852 eV
Transition (v -> c):
  (s=0, k=60, n=28, [0.00, 0.00, 0.00]) -> (s=0, k=115, n=29, [0.45, 0.00, 0.00])
# Writing to gsq-06.gpw (mode='')

---

timing:  # [seconds]
  Total: 854.512  # ━━━━━━━━━━━━━━━━━━━━━━━━━━━━━━━━━━━━━━━━━━━━━━━━━━━━━━━━━
  Init:   12.447  # ━
  SCF:   841.570  # ━━━━━━━━━━━━━━━━━━━━━━━━━━━━━━━━━━━━━━━━━━━━━━━━━━━━━━━━

Max RSS: 562.523  # MiB
