#  __  _  _
# | _ |_)|_||  |
# |__||  | ||/\| - 24.1.0

User:   s194113@n-62-28-30
Date:   Mon Apr 22 19:12:56 2024
Arch:   x86_64
Pid:    16354
CWD:    /zhome/87/8/147075/10302/10302_NM/MnI2/V_con
Python: 3.8.5
gpaw:   /zhome/87/8/147075/venv-name/gpaw/gpaw (10808453a8)
_gpaw:  /zhome/87/8/147075/venv-name/gpaw/
        _gpaw.cpython-38-x86_64-linux-gnu.so (10808453a8)
ase:    /zhome/87/8/147075/venv-name/ase/ase (version 3.23.0b1-c36115a2db)
numpy:  /zhome/87/8/147075/venv-name/lib/python3.8/site-packages/numpy (version 1.24.4)
scipy:  /zhome/87/8/147075/venv-name/lib/python3.8/site-packages/scipy (version 1.10.1)
libxc:  4.3.4
units:  Angstrom and eV
cores: 12
OpenMP: False
OMP_NUM_THREADS: 1

---
input parameters:
  kpts: 
    density: 6.0
    gamma: True
  magmoms: [[1, 0, 0], [0, 0, 0], [0, 0, 0]]
  mixer: 
    backend: 'pulay'
    beta: 0.05
    method: 'sum'
    nmaxold: 5
    weight: 100
  mode: 
    name: 'pw'
    ecut: 600
    qspiral: array([0.23809524, 0.23809524, 0.        ])
  parallel: 
    kpt: None
    domain: 1
    band: 1
    order: 'kdb'
    stridebands: False
    augment_grids: False
    sl_auto: False
    sl_default: None
    sl_diagonalize: None
    sl_inverse_cholesky: None
    sl_lcao: None
    sl_lrtddft: None
    use_elpa: False
    elpasolver: '2stage'
    buffer_size: None
    gpu: False
  symmetry: 
    point_group: False
    time_reversal: False
  xc: 
    name: 'LDA'

#                        
#                        
#                        
#                        
#                        
#              I         
#                        
#        Mn              
#          I             
#                        
#                        
#                        
#                        
#                        

atoms: [  # symbols, positions [Ang] and initial magnetic moments
  [ Mn, [   0.000000,    0.000000,    2.513573], [ 1.000,  0.000,  0.000]], # 0
  [  I, [   2.083000,    1.202621,    4.027147], [ 0.000,  0.000,  0.000]], # 1
  [  I, [   0.000000,    2.405241,    1.000000], [ 0.000,  0.000,  0.000]]] # 2

cell: [  # Ang
#     x            y            z
  [   4.166000,    0.000000,    0.000000],
  [  -2.083000,    3.607862,    0.000000],
  [   0.000000,   -0.000000,    5.027147]]

periodic: [True      , True      , False     ]
lengths:  [  4.166000,   4.166000,   5.027147]  # Ang
angles:   [ 90.000000,  90.000000, 120.000000]

symmetry:
  number of symmetries: 1
  rotations: [
    [[ 1,  0,  0], [ 0,  1,  0], [ 0,  0,  1]]]

bz sampling:
  number of bz points: 121
  number of ibz points: 121
  monkhorst-pack size: [11, 11, 1]
  monkhorst-pack shift: [0, 0, 0]
  points and weights: [
    [[ -0.45454545,  -0.45454545,   0.00000000], 0.00826446],  # 0
    [[ -0.45454545,  -0.36363636,   0.00000000], 0.00826446],  # 1
    [[ -0.45454545,  -0.27272727,   0.00000000], 0.00826446],  # 2
    [[ -0.45454545,  -0.18181818,   0.00000000], 0.00826446],  # 3
    [[ -0.45454545,  -0.09090909,   0.00000000], 0.00826446],  # 4
    [[ -0.45454545,   0.00000000,   0.00000000], 0.00826446],  # 5
    [[ -0.45454545,   0.09090909,   0.00000000], 0.00826446],  # 6
    [[ -0.45454545,   0.18181818,   0.00000000], 0.00826446],  # 7
    [[ -0.45454545,   0.27272727,   0.00000000], 0.00826446],  # 8
    [[ -0.45454545,   0.36363636,   0.00000000], 0.00826446],  # 9
    # ...
    [[  0.45454545,   0.45454545,   0.00000000], 0.00826446]]  # 120

plane wave coefficients: 2534
cutoff: 600.0 eV

spin-components: 4  # (non-collinear spins)
bands: 42
valence electrons: 29.0
spin-degeneracy: 1
dtype: complex128

memory:
    wave functions: 412_089_216  # bytes  (34_340_768 per core)

parallelization:
    kpt:    12
    domain: 1
    band:   1

density:
  components: 4
  grid points: [24 24 30]
  charge: 0.0  # |e|

potential:
  grid points: [24 24 30]

species:
  Mn:
    name: Manganese
    id: 0d715a8018be061a6e9ea6f2d364ac92
    Z: 25.0
    valence: 15
    core: 10
    charge: 0.0
    file: /zhome/86/d/1666/PAW/gpaw-setups-0.9.20000/Mn.LDA.gz
    compensation charges: {type: gauss,
                           rc: 0.38,
                           lmax: 2}
    cutoffs: {filter: 2.14,
              core: 0.86}
    valence states:
      #              energy  rcut
      - 3s(2.00)   -85.387   1.275
      - 4s(2.00)    -5.282   1.275
      - 3p(6.00)   -54.493   1.281
      - 4p(0.00)    -1.471   1.281
      - 3d(5.00)    -7.009   1.138
      -  d          20.203   1.138
  
    # Using partial waves for Mn as LCAO basis

  I:
    name: Iodine
    id: b559721c0c096a7b4c8fc0e0f4de5cf4
    Z: 53.0
    valence: 7
    core: 46
    charge: 0.0
    file: /zhome/86/d/1666/PAW/gpaw-setups-0.9.20000/I.LDA.gz
    compensation charges: {type: gauss,
                           rc: 0.37,
                           lmax: 2}
    cutoffs: {filter: 2.06,
              core: 2.90}
    valence states:
      #              energy  rcut
      - 5s(2.00)   -17.626   1.164
      - 5p(5.00)    -7.241   1.164
      -  s           9.585   1.164
      -  p          19.970   1.164
      -  d           0.000   1.164
  
    # Using partial waves for I as LCAO basis

Reference energy: -418222.442431  # eV

eigensolver:
  name: 'Davidson'
  niter: 2
  converge_bands: 'occupied'
Density mixing:
  Method: sum
  Backend: pulay
  Linear mixing parameter: 0.05
  old densities: 5
  Damping of long wavelength oscillations: 100
occupation numbers:
  Fermi-Dirac:
    width: 0.1000  # eV
  

poisson solver:
  ecut: 4800.0  # eV

xc functional:
  name: None

convergence criteria:
- Maximum [total energy] change in last 3 cyles: 0.0005 eV / valence electron
- Maximum integral of absolute [dens]ity change: 0.0001 electrons / valence electron
- Maximum integral of absolute [eigenst]ate change: 4e-08 eV^2 / valence electron
maximum number of iterations: 333

#      iter     time        total  log10-change:
#                          energy   eigst   dens
# iter:   1 19:13:14   -15.134733                  +1.0,+0.0,+0.0
# iter:   2 19:13:21   -13.435125   -0.41  -1.02   +0.8,-0.0,-0.0
# iter:   3 19:13:29   -13.323238   -1.25  -1.39   +1.0,-0.0,-0.0
# iter:   4 19:13:36   -13.488907   -1.31  -1.51   +1.3,+0.0,+0.0
# iter:   5 19:13:43   -13.473109   -2.79  -1.64   +1.6,+0.0,-0.0
# iter:   6 19:13:50   -13.432122   -2.90  -1.67   +1.8,+0.0,-0.0
# iter:   7 19:13:58   -13.524377   -2.78  -1.75   +2.0,+0.0,-0.0
# iter:   8 19:14:05   -14.020046   -2.15  -1.83   +2.8,+0.0,+0.0
# iter:   9 19:14:12   -14.127918   -2.03  -1.80   +3.3,+0.0,-0.0
# iter:  10 19:14:19   -14.184189   -2.63  -2.14   +3.5,+0.0,-0.0
# iter:  11 19:14:26   -14.235798   -2.86  -2.13   +3.6,+0.0,-0.0
# iter:  12 19:14:33   -14.316997   -2.40  -2.27   +4.1,+0.0,-0.0
# iter:  13 19:14:40   -14.308633   -3.33  -2.33   +4.0,+0.0,+0.0
# iter:  14 19:14:47   -14.317970c  -3.83  -2.55   +4.1,+0.0,+0.0
# iter:  15 19:14:55   -14.307218c  -4.09  -2.67   +4.0,+0.0,-0.0
# iter:  16 19:15:02   -14.320577c  -3.94  -2.62   +4.2,+0.0,-0.0
# iter:  17 19:15:09   -14.318919c  -4.14  -2.98   +4.2,+0.0,-0.0
# iter:  18 19:15:16   -14.318426c  -4.63  -2.89   +4.2,+0.0,-0.0
# iter:  19 19:15:23   -14.318508c  -5.72  -3.04   +4.2,+0.0,-0.0
# iter:  20 19:15:30   -14.320938c  -3.44  -3.05   +4.2,+0.0,-0.0
# iter:  21 19:15:37   -14.320086c  -4.07  -2.74   +4.2,+0.0,-0.0
# iter:  22 19:15:45   -14.320499c  -5.07  -3.67   +4.2,+0.0,-0.0
# iter:  23 19:15:52   -14.320484c  -6.46  -3.68   +4.2,+0.0,-0.0
# iter:  24 19:15:59   -14.320399c  -5.08  -3.77   +4.2,+0.0,-0.0
# iter:  25 19:16:06   -14.320625c  -5.32  -3.49   +4.2,+0.0,-0.0
# iter:  26 19:16:13   -14.320621c  -7.19  -4.24c  +4.2,+0.0,-0.0
# iter:  27 19:16:20   -14.320735c  -6.24  -4.28c  +4.2,+0.0,-0.0
# iter:  28 19:16:27   -14.320664c  -6.78  -4.01c  +4.2,+0.0,-0.0
# iter:  29 19:16:34   -14.320635c  -7.18  -4.66c  +4.2,+0.0,-0.0
# iter:  30 19:16:41   -14.320661c  -7.65c -4.90c  +4.2,+0.0,-0.0
scf_steps: 30
energies:  # eV
  coulomb:         -27.393808
  zero:              0.077069
  xc:              -21.731309
  external:          0.000000
  kinetic:          34.748103
  spinorbit:         0.000000
  entropy:          -0.041429
  total:           -14.341375
  extrapolated:    -14.320661

dipole moment: [-4.963169, -8.596460, -1.864351]  # |e|*Ang

total magnetic moment: [4.223888, 0.009212, -0.000000]

local magnetic moments: [
  [ 4.044361,  0.000000, -0.000000],  # Mn 0
  [ 0.002042, -0.027251, -0.000000],  # I  1
  [ 0.002042, -0.027251,  0.000000]]  # I  2


Fermi level: 7.319 eV

kpt = [-0.455, -0.455, 0.000], weight = 0.008:
  Band      eig [eV]   occ [0-1]
     0       -73.463       1.000
   ...
    21         4.149       1.000
    22         4.435       1.000
    23         4.556       1.000
    24         4.889       1.000
    25         5.041       1.000
    26         5.236       1.000
    27         5.655       1.000
    28         6.399       1.000
    29         7.617       0.048
    30         7.958       0.002
    31         8.114       0.000
    32         8.739       0.000
    33         8.957       0.000
    34         9.481       0.000
    35        10.452       0.000
    36        11.499       0.000
   ...
    41        13.979       0.000

kpt = [-0.455, -0.364, 0.000], weight = 0.008:
  Band      eig [eV]   occ [0-1]
     0       -73.463       1.000
   ...
    21         4.006       1.000
    22         4.124       1.000
    23         4.576       1.000
    24         4.862       1.000
    25         5.032       1.000
    26         5.182       1.000
    27         5.837       1.000
    28         6.742       0.997
    29         7.503       0.137
    30         7.913       0.003
    31         8.101       0.000
    32         8.775       0.000
    33         9.223       0.000
    34         9.735       0.000
    35        10.937       0.000
    36        11.584       0.000
   ...
    41        13.903       0.000

kpt = [-0.455, -0.273, 0.000], weight = 0.008:
  Band      eig [eV]   occ [0-1]
     0       -73.463       1.000
   ...
    21         4.003       1.000
    22         4.211       1.000
    23         4.600       1.000
    24         4.710       1.000
    25         5.093       1.000
    26         5.216       1.000
    27         6.182       1.000
    28         6.954       0.975
    29         7.556       0.085
    30         7.801       0.008
    31         8.089       0.000
    32         8.876       0.000
    33         9.276       0.000
    34        10.289       0.000
    35        10.989       0.000
    36        11.508       0.000
   ...
    41        13.683       0.000
(only showing first 3 out of 121 k-points)

No gap
# Writing to gsq-20.gpw (mode='')

---

timing:  # [seconds]
  Total: 2531.208  # ━━━━━━━━━━━━━━━━━━━━━━━━━━━━━━━━━━━━━━━━━━━━━━━━━━━━━━━━
  Init:    11.532  # ╸
  SCF:    214.139  # ━━━━╸

Max RSS: 808.090  # MiB
