#  __  _  _
# | _ |_)|_||  |
# |__||  | ||/\| - 24.1.0

User:   s194113@n-62-29-8
Date:   Tue Apr 23 02:26:11 2024
Arch:   x86_64
Pid:    21008
CWD:    /zhome/87/8/147075/10302/10302_NM/MnI2/V_con
Python: 3.8.5
gpaw:   /zhome/87/8/147075/venv-name/gpaw/gpaw (10808453a8)
_gpaw:  /zhome/87/8/147075/venv-name/gpaw/
        _gpaw.cpython-38-x86_64-linux-gnu.so (10808453a8)
ase:    /zhome/87/8/147075/venv-name/ase/ase (version 3.23.0b1-c36115a2db)
numpy:  /zhome/87/8/147075/venv-name/lib/python3.8/site-packages/numpy (version 1.24.4)
scipy:  /zhome/87/8/147075/venv-name/lib/python3.8/site-packages/scipy (version 1.10.1)
libxc:  4.3.4
units:  Angstrom and eV
cores: 12
OpenMP: False
OMP_NUM_THREADS: 1

---
input parameters:
  kpts: 
    density: 6.0
    gamma: True
  magmoms: [[1, 0, 0], [0, 0, 0], [0, 0, 0]]
  mixer: 
    backend: 'pulay'
    beta: 0.05
    method: 'sum'
    nmaxold: 5
    weight: 100
  mode: 
    name: 'pw'
    ecut: 600
    qspiral: array([0.23809524, 0.23809524, 0.        ])
  parallel: 
    kpt: None
    domain: 1
    band: 1
    order: 'kdb'
    stridebands: False
    augment_grids: False
    sl_auto: False
    sl_default: None
    sl_diagonalize: None
    sl_inverse_cholesky: None
    sl_lcao: None
    sl_lrtddft: None
    use_elpa: False
    elpasolver: '2stage'
    buffer_size: None
    gpu: False
  symmetry: 
    point_group: False
    time_reversal: False
  xc: 
    name: 'LDA'

#                        
#                        
#                        
#                        
#                        
#              I         
#                        
#        Mn              
#          I             
#                        
#                        
#                        
#                        
#                        

atoms: [  # symbols, positions [Ang] and initial magnetic moments
  [ Mn, [   0.000000,    0.000000,    6.513573], [ 1.000,  0.000,  0.000]], # 0
  [  I, [   2.083000,    1.202621,    8.027147], [ 0.000,  0.000,  0.000]], # 1
  [  I, [   0.000000,    2.405241,    5.000000], [ 0.000,  0.000,  0.000]]] # 2

cell: [  # Ang
#     x            y            z
  [   4.166000,    0.000000,    0.000000],
  [  -2.083000,    3.607862,    0.000000],
  [   0.000000,   -0.000000,   13.027147]]

periodic: [True      , True      , False     ]
lengths:  [  4.166000,   4.166000,  13.027147]  # Ang
angles:   [ 90.000000,  90.000000, 120.000000]

symmetry:
  number of symmetries: 1
  rotations: [
    [[ 1,  0,  0], [ 0,  1,  0], [ 0,  0,  1]]]

bz sampling:
  number of bz points: 121
  number of ibz points: 121
  monkhorst-pack size: [11, 11, 1]
  monkhorst-pack shift: [0, 0, 0]
  points and weights: [
    [[ -0.45454545,  -0.45454545,   0.00000000], 0.00826446],  # 0
    [[ -0.45454545,  -0.36363636,   0.00000000], 0.00826446],  # 1
    [[ -0.45454545,  -0.27272727,   0.00000000], 0.00826446],  # 2
    [[ -0.45454545,  -0.18181818,   0.00000000], 0.00826446],  # 3
    [[ -0.45454545,  -0.09090909,   0.00000000], 0.00826446],  # 4
    [[ -0.45454545,   0.00000000,   0.00000000], 0.00826446],  # 5
    [[ -0.45454545,   0.09090909,   0.00000000], 0.00826446],  # 6
    [[ -0.45454545,   0.18181818,   0.00000000], 0.00826446],  # 7
    [[ -0.45454545,   0.27272727,   0.00000000], 0.00826446],  # 8
    [[ -0.45454545,   0.36363636,   0.00000000], 0.00826446],  # 9
    # ...
    [[  0.45454545,   0.45454545,   0.00000000], 0.00826446]]  # 120

plane wave coefficients: 6561
cutoff: 600.0 eV

spin-components: 4  # (non-collinear spins)
bands: 42
valence electrons: 29.0
spin-degeneracy: 1
dtype: complex128

memory:
    wave functions: 1_061_609_472  # bytes  (88_467_456 per core)

parallelization:
    kpt:    12
    domain: 1
    band:   1

density:
  components: 4
  grid points: [24 24 75]
  charge: 0.0  # |e|

potential:
  grid points: [24 24 75]

species:
  Mn:
    name: Manganese
    id: 0d715a8018be061a6e9ea6f2d364ac92
    Z: 25.0
    valence: 15
    core: 10
    charge: 0.0
    file: /zhome/86/d/1666/PAW/gpaw-setups-0.9.20000/Mn.LDA.gz
    compensation charges: {type: gauss,
                           rc: 0.38,
                           lmax: 2}
    cutoffs: {filter: 2.14,
              core: 0.86}
    valence states:
      #              energy  rcut
      - 3s(2.00)   -85.387   1.275
      - 4s(2.00)    -5.282   1.275
      - 3p(6.00)   -54.493   1.281
      - 4p(0.00)    -1.471   1.281
      - 3d(5.00)    -7.009   1.138
      -  d          20.203   1.138
  
    # Using partial waves for Mn as LCAO basis

  I:
    name: Iodine
    id: b559721c0c096a7b4c8fc0e0f4de5cf4
    Z: 53.0
    valence: 7
    core: 46
    charge: 0.0
    file: /zhome/86/d/1666/PAW/gpaw-setups-0.9.20000/I.LDA.gz
    compensation charges: {type: gauss,
                           rc: 0.37,
                           lmax: 2}
    cutoffs: {filter: 2.06,
              core: 2.90}
    valence states:
      #              energy  rcut
      - 5s(2.00)   -17.626   1.164
      - 5p(5.00)    -7.241   1.164
      -  s           9.585   1.164
      -  p          19.970   1.164
      -  d           0.000   1.164
  
    # Using partial waves for I as LCAO basis

Reference energy: -418222.442431  # eV

eigensolver:
  name: 'Davidson'
  niter: 2
  converge_bands: 'occupied'
Density mixing:
  Method: sum
  Backend: pulay
  Linear mixing parameter: 0.05
  old densities: 5
  Damping of long wavelength oscillations: 100
occupation numbers:
  Fermi-Dirac:
    width: 0.1000  # eV
  

poisson solver:
  ecut: 4800.0  # eV

xc functional:
  name: None

convergence criteria:
- Maximum [total energy] change in last 3 cyles: 0.0005 eV / valence electron
- Maximum integral of absolute [dens]ity change: 0.0001 electrons / valence electron
- Maximum integral of absolute [eigenst]ate change: 4e-08 eV^2 / valence electron
maximum number of iterations: 333

#      iter     time        total  log10-change:
#                          energy   eigst   dens
# iter:   1 02:26:36   -14.888246                  +1.0,+0.0,+0.0
# iter:   2 02:26:51   -13.812135   -0.23  -1.10   +0.9,-0.0,-0.0
# iter:   3 02:27:07   -13.641960   -0.78  -1.38   +1.1,-0.0,-0.0
# iter:   4 02:27:22   -13.844729   -1.00  -1.54   +1.3,-0.0,-0.0
# iter:   5 02:27:38   -13.919493   -1.65  -1.64   +1.8,-0.0,+0.0
# iter:   6 02:27:53   -14.125511   -1.88  -1.61   +2.0,-0.0,+0.0
# iter:   7 02:28:08   -14.197861   -2.22  -1.49   +2.2,-0.0,+0.0
# iter:   8 02:28:24   -13.469371   -1.25  -1.44   +1.9,-0.0,-0.0
# iter:   9 02:28:39   -13.459868   -1.65  -1.84   +1.2,-0.0,-0.0
# iter:  10 02:28:55   -13.109697   -1.71  -1.64   +0.3,-0.0,-0.0
# iter:  11 02:29:10   -13.389809   -2.30  -1.75   +0.4,-0.0,-0.0
# iter:  12 02:29:25   -13.846942   -1.71  -1.93   +1.4,-0.0,-0.0
# iter:  13 02:29:41   -13.787608   -2.77  -1.74   +1.8,-0.0,-0.0
# iter:  14 02:29:56   -13.830317   -2.64  -1.63   +1.8,-0.0,-0.0
# iter:  15 02:30:11   -14.224471   -2.83  -1.55   +2.3,-0.0,-0.0
# iter:  16 02:30:26   -14.284352   -3.52  -1.51   +2.5,-0.0,-0.0
# iter:  17 02:30:42   -15.118950   -1.96  -1.50   +3.6,+0.0,-0.0
# iter:  18 02:30:57   -12.529919   -1.08  -1.56   +0.8,-0.0,-0.0
# iter:  19 02:31:12   -13.383243   -2.08  -1.65   +0.4,-0.0,-0.0
# iter:  20 02:31:27   -14.808906   -1.16  -2.05   +2.9,+0.0,+0.0
# iter:  21 02:31:42   -15.146587   -2.45  -1.66   +3.7,+0.0,+0.0
# iter:  22 02:31:58   -14.672588   -2.25  -1.61   +3.0,+0.0,+0.0
# iter:  23 02:32:13   -15.146745   -2.18  -1.53   +3.8,+0.0,+0.0
# iter:  24 02:32:28   -14.714953   -2.01  -1.62   +3.0,-0.0,-0.0
# iter:  25 02:32:43   -14.311565   -1.37  -1.49   +6.3,+0.0,-0.0
# iter:  26 02:32:58   -12.427844   -1.04  -1.74   +7.2,+0.0,-0.0
# iter:  27 02:33:14   -15.112930   -1.62  -1.96   +4.9,+0.0,+0.0
# iter:  28 02:33:29   -14.445328   -2.30  -1.97   +5.9,+0.0,-0.0
# iter:  29 02:33:44   -14.737908   -3.04  -2.21   +5.6,+0.0,-0.0
# iter:  30 02:33:59   -14.812750   -3.55  -2.28   +5.5,+0.0,-0.0
# iter:  31 02:34:14   -14.763449   -2.52  -2.37   +5.5,+0.0,-0.0
# iter:  32 02:34:30   -14.929457   -3.25  -2.39   +5.3,+0.0,-0.0
# iter:  33 02:34:45   -14.997162   -3.68  -2.53   +5.2,+0.0,-0.0
# iter:  34 02:35:00   -15.190002   -2.79  -2.58   +4.5,+0.0,-0.0
# iter:  35 02:35:15   -15.188026   -2.55  -2.60   +4.7,+0.0,-0.0
# iter:  36 02:35:30   -15.191497c  -3.67  -2.30   +4.6,+0.0,-0.0
# iter:  37 02:35:46   -15.189375c  -2.42  -2.36   +4.4,+0.0,-0.0
# iter:  38 02:36:01   -15.189031c  -3.43  -2.80   +4.5,+0.0,-0.0
# iter:  39 02:36:16   -15.190532c  -4.28  -2.81   +4.5,+0.0,-0.0
# iter:  40 02:36:31   -15.192728c  -3.02  -3.03   +4.5,+0.0,-0.0
# iter:  41 02:36:47   -15.189133c  -3.42  -2.73   +4.4,+0.0,-0.0
# iter:  42 02:37:02   -15.188665c  -4.07  -3.13   +4.4,+0.0,-0.0
# iter:  43 02:37:17   -15.190336c  -3.71  -3.22   +4.4,+0.0,-0.0
# iter:  44 02:37:32   -15.189747c  -4.54  -3.12   +4.4,+0.0,-0.0
# iter:  45 02:37:48   -15.189747c  -5.31  -3.52   +4.4,+0.0,-0.0
# iter:  46 02:38:03   -15.189766c  -5.77  -3.64   +4.4,+0.0,-0.0
# iter:  47 02:38:18   -15.189733c  -4.78  -3.69   +4.4,+0.0,-0.0
# iter:  48 02:38:33   -15.189705c  -6.02  -3.76   +4.4,+0.0,-0.0
# iter:  49 02:38:48   -15.189809c  -4.76  -3.89   +4.4,+0.0,-0.0
# iter:  50 02:39:04   -15.189745c  -4.98  -3.63   +4.4,+0.0,-0.0
# iter:  51 02:39:19   -15.189750c  -6.26  -4.48c  +4.4,+0.0,-0.0
# iter:  52 02:39:34   -15.189749c  -6.48  -4.51c  +4.4,+0.0,-0.0
# iter:  53 02:39:49   -15.189753c  -6.16  -4.39c  +4.4,+0.0,-0.0
# iter:  54 02:40:04   -15.189755c  -6.74  -4.53c  +4.4,+0.0,-0.0
# iter:  55 02:40:20   -15.189751c  -7.21  -4.43c  +4.4,+0.0,-0.0
# iter:  56 02:40:35   -15.189751c  -7.30  -4.67c  +4.4,+0.0,-0.0
# iter:  57 02:40:50   -15.189749c  -7.76c -4.56c  +4.4,+0.0,-0.0
scf_steps: 57
energies:  # eV
  coulomb:         -17.413725
  zero:              0.089677
  xc:              -18.391297
  external:          0.000000
  kinetic:          20.526656
  spinorbit:         0.000000
  entropy:          -0.002122
  total:           -15.190810
  extrapolated:    -15.189749

dipole moment: [-5.013613, -8.683832, -9.039194]  # |e|*Ang

total magnetic moment: [4.438285, 0.009537, -0.000000]

local magnetic moments: [
  [ 4.254248,  0.000000, -0.000000],  # Mn 0
  [ 0.002157, -0.028776, -0.000000],  # I  1
  [ 0.002156, -0.028776, -0.000000]]  # I  2


Fermi level: -0.432 eV

kpt = [-0.455, -0.455, 0.000], weight = 0.008:
  Band      eig [eV]   occ [0-1]
     0       -81.307       1.000
   ...
    21        -3.411       1.000
    22        -3.281       1.000
    23        -3.092       1.000
    24        -2.884       1.000
    25        -2.818       1.000
    26        -2.755       1.000
    27        -1.271       1.000
    28        -1.262       1.000
    29         0.307       0.001
    30         0.477       0.000
    31         0.563       0.000
    32         1.289       0.000
    33         1.360       0.000
    34         2.694       0.000
    35         3.557       0.000
    36         4.534       0.000
   ...
    41         5.500       0.000

kpt = [-0.455, -0.364, 0.000], weight = 0.008:
  Band      eig [eV]   occ [0-1]
     0       -81.307       1.000
   ...
    21        -3.434       1.000
    22        -3.226       1.000
    23        -3.121       1.000
    24        -2.933       1.000
    25        -2.751       1.000
    26        -2.657       1.000
    27        -1.398       1.000
    28        -1.103       0.999
    29         0.289       0.001
    30         0.431       0.000
    31         0.564       0.000
    32         1.311       0.000
    33         1.414       0.000
    34         2.428       0.000
    35         3.389       0.000
    36         3.889       0.000
   ...
    41         5.883       0.000

kpt = [-0.455, -0.273, 0.000], weight = 0.008:
  Band      eig [eV]   occ [0-1]
     0       -81.307       1.000
   ...
    21        -3.377       1.000
    22        -3.163       1.000
    23        -3.081       1.000
    24        -2.917       1.000
    25        -2.661       1.000
    26        -2.557       1.000
    27        -1.421       1.000
    28        -1.058       0.998
    29         0.257       0.001
    30         0.459       0.000
    31         0.543       0.000
    32         1.274       0.000
    33         1.453       0.000
    34         2.428       0.000
    35         3.080       0.000
    36         3.880       0.000
   ...
    41         5.446       0.000
(only showing first 3 out of 121 k-points)

Gap: 1.174 eV
Transition (v -> c):
  (s=0, k=63, n=28, [0.00, 0.27, 0.00]) -> (s=0, k=92, n=29, [0.27, -0.09, 0.00])
# Writing to gsq-20.gpw (mode='')

---

timing:  # [seconds]
  Total: 1442.598  # ━━━━━━━━━━━━━━━━━━━━━━━━━━━━━━━━━━━━━━━━━━━━━━━━━━━━━━━━
  Init:    10.543  # ╸
  SCF:    869.058  # ━━━━━━━━━━━━━━━━━━━━━━━━━━━━━━━━━╸

Max RSS: 1228.711  # MiB
