#  __  _  _
# | _ |_)|_||  |
# |__||  | ||/\| - 24.1.0

User:   s194113@n-62-29-22
Date:   Wed May  1 11:12:12 2024
Arch:   x86_64
Pid:    19363
CWD:    /work3/s194113/10302/10302_NM/VBr2_2D_rough
Python: 3.8.5
gpaw:   /zhome/87/8/147075/venv-name/gpaw/gpaw (10808453a8)
_gpaw:  /zhome/87/8/147075/venv-name/gpaw/
        _gpaw.cpython-38-x86_64-linux-gnu.so (10808453a8)
ase:    /zhome/87/8/147075/venv-name/ase/ase (version 3.23.0b1-c36115a2db)
numpy:  /zhome/87/8/147075/venv-name/lib/python3.8/site-packages/numpy (version 1.24.4)
scipy:  /zhome/87/8/147075/venv-name/lib/python3.8/site-packages/scipy (version 1.10.1)
libxc:  4.3.4
units:  Angstrom and eV
cores: 12
OpenMP: False
OMP_NUM_THREADS: 1

---
input parameters:
  kpts: 
    density: 6.0
    gamma: True
  magmoms: [[2.64162512, 0, 0], [-0.02514574, 0, 0], [-0.02514574, 0, 0]]
  mixer: 
    backend: 'pulay'
    beta: 0.05
    method: 'sum'
    nmaxold: 5
    weight: 100
  mode: 
    name: 'pw'
    ecut: 600.0
    qspiral: [0.03333333333333333, 0.03333333333333333, 0]
  parallel: 
    kpt: None
    domain: 1
    band: 1
    order: 'kdb'
    stridebands: False
    augment_grids: False
    sl_auto: False
    sl_default: None
    sl_diagonalize: None
    sl_inverse_cholesky: None
    sl_lcao: None
    sl_lrtddft: None
    use_elpa: False
    elpasolver: '2stage'
    buffer_size: None
    gpu: False
  symmetry: 
    point_group: False
    time_reversal: False
  xc: 
    name: 'LDA'

#                        
#                        
#                        
#                        
#              Br        
#                        
#                        
#        V Br            
#                        
#                        
#                        
#                        
#                        

atoms: [  # symbols, positions [Ang] and initial magnetic moments
  [  V, [   0.000000,    0.000000,    7.448555], [ 2.642,  0.000,  0.000]], # 0
  [ Br, [   1.920224,    1.108642,    8.897111], [-0.025,  0.000,  0.000]], # 1
  [ Br, [   0.000000,    2.217284,    6.000000], [-0.025,  0.000,  0.000]]] # 2

cell: [  # Ang
#     x            y            z
  [   3.840448,    0.000000,    0.000000],
  [  -1.920224,    3.325925,    0.000000],
  [   0.000000,    0.000000,   14.897111]]

periodic: [True      , True      , False     ]
lengths:  [  3.840448,   3.840448,  14.897111]  # Ang
angles:   [ 90.000000,  90.000000, 120.000000]

symmetry:
  number of symmetries: 1
  rotations: [
    [[ 1,  0,  0], [ 0,  1,  0], [ 0,  0,  1]]]

bz sampling:
  number of bz points: 144
  number of ibz points: 144
  monkhorst-pack size: [12, 12, 1]
  monkhorst-pack shift: [0.041666666666666664, 0.041666666666666664, 0.0]
  points and weights: [
    [[ -0.41666667,  -0.41666667,   0.00000000], 0.00694444],  # 0
    [[ -0.41666667,  -0.33333333,   0.00000000], 0.00694444],  # 1
    [[ -0.41666667,  -0.25000000,   0.00000000], 0.00694444],  # 2
    [[ -0.41666667,  -0.16666667,   0.00000000], 0.00694444],  # 3
    [[ -0.41666667,  -0.08333333,   0.00000000], 0.00694444],  # 4
    [[ -0.41666667,  -0.00000000,   0.00000000], 0.00694444],  # 5
    [[ -0.41666667,   0.08333333,   0.00000000], 0.00694444],  # 6
    [[ -0.41666667,   0.16666667,   0.00000000], 0.00694444],  # 7
    [[ -0.41666667,   0.25000000,   0.00000000], 0.00694444],  # 8
    [[ -0.41666667,   0.33333333,   0.00000000], 0.00694444],  # 9
    # ...
    [[  0.50000000,   0.50000000,   0.00000000], 0.00694444]]  # 143

plane wave coefficients: 6385
cutoff: 600.0 eV

spin-components: 4  # (non-collinear spins)
bands: 42
valence electrons: 27.0
spin-degeneracy: 1
dtype: complex128

memory:
    wave functions: 1_232_437_248  # bytes  (102_703_104 per core)

parallelization:
    kpt:    12
    domain: 1
    band:   1

density:
  components: 4
  grid points: [24 24 90]
  charge: 0.0  # |e|

potential:
  grid points: [24 24 90]

species:
  V:
    name: Vanadium
    id: 7939ce69e6bb5930668dfcf9bb1979c3
    Z: 23.0
    valence: 13
    core: 10
    charge: 0.0
    file: /zhome/86/d/1666/PAW/gpaw-setups-0.9.20000/V.LDA.gz
    compensation charges: {type: gauss,
                           rc: 0.37,
                           lmax: 2}
    cutoffs: {filter: 2.14,
              core: 0.96}
    valence states:
      #              energy  rcut
      - 3s(2.00)   -69.819   1.254
      - 4s(2.00)    -4.846   1.254
      - 3p(6.00)   -43.961   1.281
      - 4p(0.00)    -1.526   1.281
      - 3d(3.00)    -5.381   1.169
      -  d          21.830   1.169
  
    # Using partial waves for V as LCAO basis

  Br:
    name: Bromine
    id: 10a25bbcb3273ec7d8d7f6fc01d2618d
    Z: 35.0
    valence: 7
    core: 28
    charge: 0.0
    file: /zhome/86/d/1666/PAW/gpaw-setups-0.9.20000/Br.LDA.gz
    compensation charges: {type: gauss,
                           rc: 0.35,
                           lmax: 2}
    cutoffs: {filter: 1.98,
              core: 2.38}
    valence states:
      #              energy  rcut
      - 4s(2.00)   -20.306   1.111
      - 4p(5.00)    -8.003   1.111
      -  s           6.906   1.111
      -  p          19.208   1.111
      -  d           0.000   1.111
  
    # Using partial waves for Br as LCAO basis

Reference energy: -167392.690611  # eV

eigensolver:
  name: 'Davidson'
  niter: 2
  converge_bands: 'occupied'
Density mixing:
  Method: sum
  Backend: pulay
  Linear mixing parameter: 0.05
  old densities: 5
  Damping of long wavelength oscillations: 100
occupation numbers:
  Fermi-Dirac:
    width: 0.1000  # eV
  

poisson solver:
  ecut: 4800.0  # eV

xc functional:
  name: None

convergence criteria:
- Maximum [total energy] change in last 3 cyles: 0.0005 eV / valence electron
- Maximum integral of absolute [dens]ity change: 0.0001 electrons / valence electron
- Maximum integral of absolute [eigenst]ate change: 4e-08 eV^2 / valence electron
maximum number of iterations: 333

#      iter     time        total  log10-change:
#                          energy   eigst   dens
# iter:   1 11:12:47   -15.780967                  +2.6,+0.0,+0.0
# iter:   2 11:13:07   -15.740386   -0.68  -1.39   +2.7,+0.0,+0.0
# iter:   3 11:13:28   -15.594268   -1.15  -1.44   +2.8,+0.0,+0.0
# iter:   4 11:13:48   -15.614687   -1.47  -1.56   +2.9,-0.0,+0.0
# iter:   5 11:14:08   -15.654918   -1.90  -1.68   +3.0,-0.0,+0.0
# iter:   6 11:14:28   -15.644064   -2.48  -2.16   +3.0,-0.0,+0.0
# iter:   7 11:14:49   -15.644379c  -2.48  -2.27   +3.0,-0.0,+0.0
# iter:   8 11:15:09   -15.639847c  -3.34  -2.48   +3.0,-0.0,+0.0
# iter:   9 11:15:29   -15.639993c  -3.95  -2.89   +3.0,-0.0,+0.0
# iter:  10 11:15:49   -15.639870c  -3.84  -2.80   +3.0,-0.0,+0.0
# iter:  11 11:16:09   -15.639903c  -4.42  -3.42   +3.0,-0.0,+0.0
# iter:  12 11:16:30   -15.639902c  -4.88  -3.66   +3.0,-0.0,+0.0
# iter:  13 11:16:50   -15.639871c  -5.07  -3.69   +3.0,-0.0,+0.0
# iter:  14 11:17:10   -15.639881c  -5.39  -3.88   +3.0,-0.0,+0.0
# iter:  15 11:17:31   -15.639868c  -5.61  -3.92   +3.0,-0.0,+0.0
# iter:  16 11:17:51   -15.639866c  -5.84  -4.15c  +3.0,-0.0,+0.0
# iter:  17 11:18:11   -15.639866c  -6.28  -4.23c  +3.0,-0.0,+0.0
# iter:  18 11:18:31   -15.639866c  -6.50  -4.28c  +3.0,-0.0,+0.0
# iter:  19 11:18:51   -15.639867c  -6.80  -4.46c  +3.0,-0.0,+0.0
# iter:  20 11:19:12   -15.639869c  -7.02  -4.51c  +3.0,-0.0,+0.0
# iter:  21 11:19:32   -15.639872c  -7.01  -4.51c  +3.0,-0.0,+0.0
# iter:  22 11:19:52   -15.639872c  -7.57c -4.62c  +3.0,-0.0,+0.0
scf_steps: 22
energies:  # eV
  coulomb:          -6.191856
  zero:              0.038668
  xc:              -16.697058
  external:          0.000000
  kinetic:           7.214682
  spinorbit:         0.000000
  entropy:          -0.008616
  total:           -15.644180
  extrapolated:    -15.639872

dipole moment: [-5.130951, -8.886227, -10.162504]  # |e|*Ang

total magnetic moment: [2.990081, -0.000586, 0.000000]

local magnetic moments: [
  [ 2.629450, -0.000026, -0.000000],  # V  0
  [-0.025903,  0.005491,  0.000000],  # Br 1
  [-0.025897,  0.005521,  0.000000]]  # Br 2


Fermi level: -0.539 eV

kpt = [-0.417, -0.417, 0.000], weight = 0.007:
  Band      eig [eV]   occ [0-1]
     0       -65.293       1.000
   ...
    19        -5.097       1.000
    20        -4.999       1.000
    21        -4.985       1.000
    22        -4.878       1.000
    23        -4.759       1.000
    24        -1.594       1.000
    25        -1.106       0.997
    26        -1.100       0.996
    27         0.097       0.002
    28         0.296       0.000
    29         0.441       0.000
    30         1.172       0.000
    31         1.223       0.000
    32         1.643       0.000
    33         1.836       0.000
    34         3.415       0.000
   ...
    41         5.902       0.000

kpt = [-0.417, -0.333, 0.000], weight = 0.007:
  Band      eig [eV]   occ [0-1]
     0       -65.293       1.000
   ...
    19        -5.234       1.000
    20        -5.095       1.000
    21        -4.918       1.000
    22        -4.906       1.000
    23        -4.717       1.000
    24        -1.451       1.000
    25        -1.135       0.997
    26        -1.091       0.996
    27         0.038       0.003
    28         0.236       0.000
    29         0.734       0.000
    30         1.079       0.000
    31         1.179       0.000
    32         1.571       0.000
    33         1.737       0.000
    34         3.875       0.000
   ...
    41         6.167       0.000

kpt = [-0.417, -0.250, 0.000], weight = 0.007:
  Band      eig [eV]   occ [0-1]
     0       -65.293       1.000
   ...
    19        -5.241       1.000
    20        -5.102       1.000
    21        -4.934       1.000
    22        -4.891       1.000
    23        -4.709       1.000
    24        -1.447       1.000
    25        -1.135       0.997
    26        -1.092       0.996
    27         0.031       0.003
    28         0.239       0.000
    29         0.733       0.000
    30         1.076       0.000
    31         1.179       0.000
    32         1.568       0.000
    33         1.739       0.000
    34         3.912       0.000
   ...
    41         6.149       0.000
(only showing first 3 out of 144 k-points)

Gap: 0.888 eV
Transition (v -> c):
  (s=0, k=19, n=26, [-0.33, 0.17, 0.00]) -> (s=0, k=32, n=27, [-0.25, 0.25, 0.00])
# Writing to H_2.0/gsq-00.gpw (mode='')

---

timing:  # [seconds]
  Total: 461.274  # ━━━━━━━━━━━━━━━━━━━━━━━━━━━━━━━━━━━━━━━━━━━━━━━━━━━━━━━━━
  Init:   16.128  # ━━
  SCF:   443.762  # ━━━━━━━━━━━━━━━━━━━━━━━━━━━━━━━━━━━━━━━━━━━━━━━━━━━━━━━

Max RSS: 416.031  # MiB
