#  __  _  _
# | _ |_)|_||  |
# |__||  | ||/\| - 24.1.0

User:   s194113@n-62-29-25
Date:   Wed Apr 24 12:49:38 2024
Arch:   x86_64
Pid:    17109
CWD:    /zhome/87/8/147075/10302/10302_NM/VBr2
Python: 3.8.5
gpaw:   /zhome/87/8/147075/venv-name/gpaw/gpaw (10808453a8)
_gpaw:  /zhome/87/8/147075/venv-name/gpaw/
        _gpaw.cpython-38-x86_64-linux-gnu.so (10808453a8)
ase:    /zhome/87/8/147075/venv-name/ase/ase (version 3.23.0b1-c36115a2db)
numpy:  /zhome/87/8/147075/venv-name/lib/python3.8/site-packages/numpy (version 1.24.4)
scipy:  /zhome/87/8/147075/venv-name/lib/python3.8/site-packages/scipy (version 1.10.1)
libxc:  4.3.4
units:  Angstrom and eV
cores: 12
OpenMP: False
OMP_NUM_THREADS: 1

---
input parameters:
  kpts: 
    density: 6.0
    gamma: True
  magmoms: [[2.64162512, 0, 0], [-0.02514574, 0, 0], [-0.02514574, 0, 0]]
  mixer: 
    backend: 'pulay'
    beta: 0.05
    method: 'sum'
    nmaxold: 5
    weight: 100
  mode: 
    name: 'pw'
    ecut: 600
    qspiral: array([0.35, 0.  , 0.  ])
  parallel: 
    kpt: None
    domain: 1
    band: 1
    order: 'kdb'
    stridebands: False
    augment_grids: False
    sl_auto: False
    sl_default: None
    sl_diagonalize: None
    sl_inverse_cholesky: None
    sl_lcao: None
    sl_lrtddft: None
    use_elpa: False
    elpasolver: '2stage'
    buffer_size: None
    gpu: False
  symmetry: 
    point_group: False
    time_reversal: False
  xc: 
    name: 'LDA'

#                        
#                        
#                        
#                        
#              Br        
#                        
#                        
#        V Br            
#                        
#                        
#                        
#                        
#                        

atoms: [  # symbols, positions [Ang] and initial magnetic moments
  [  V, [   0.000000,    0.000000,    2.448555], [ 2.642,  0.000,  0.000]], # 0
  [ Br, [   1.920224,    1.108642,    3.897111], [-0.025,  0.000,  0.000]], # 1
  [ Br, [   0.000000,    2.217284,    1.000000], [-0.025,  0.000,  0.000]]] # 2

cell: [  # Ang
#     x            y            z
  [   3.840448,    0.000000,    0.000000],
  [  -1.920224,    3.325925,    0.000000],
  [   0.000000,    0.000000,    4.897111]]

periodic: [True      , True      , False     ]
lengths:  [  3.840448,   3.840448,   4.897111]  # Ang
angles:   [ 90.000000,  90.000000, 120.000000]

symmetry:
  number of symmetries: 1
  rotations: [
    [[ 1,  0,  0], [ 0,  1,  0], [ 0,  0,  1]]]

bz sampling:
  number of bz points: 144
  number of ibz points: 144
  monkhorst-pack size: [12, 12, 1]
  monkhorst-pack shift: [0.041666666666666664, 0.041666666666666664, 0.0]
  points and weights: [
    [[ -0.41666667,  -0.41666667,   0.00000000], 0.00694444],  # 0
    [[ -0.41666667,  -0.33333333,   0.00000000], 0.00694444],  # 1
    [[ -0.41666667,  -0.25000000,   0.00000000], 0.00694444],  # 2
    [[ -0.41666667,  -0.16666667,   0.00000000], 0.00694444],  # 3
    [[ -0.41666667,  -0.08333333,   0.00000000], 0.00694444],  # 4
    [[ -0.41666667,  -0.00000000,   0.00000000], 0.00694444],  # 5
    [[ -0.41666667,   0.08333333,   0.00000000], 0.00694444],  # 6
    [[ -0.41666667,   0.16666667,   0.00000000], 0.00694444],  # 7
    [[ -0.41666667,   0.25000000,   0.00000000], 0.00694444],  # 8
    [[ -0.41666667,   0.33333333,   0.00000000], 0.00694444],  # 9
    # ...
    [[  0.50000000,   0.50000000,   0.00000000], 0.00694444]]  # 143

plane wave coefficients: 2107
cutoff: 600.0 eV

spin-components: 4  # (non-collinear spins)
bands: 42
valence electrons: 27.0
spin-degeneracy: 1
dtype: complex128

memory:
    wave functions: 403_716_096  # bytes  (33_643_008 per core)

parallelization:
    kpt:    12
    domain: 1
    band:   1

density:
  components: 4
  grid points: [24 24 28]
  charge: 0.0  # |e|

potential:
  grid points: [24 24 28]

species:
  V:
    name: Vanadium
    id: 7939ce69e6bb5930668dfcf9bb1979c3
    Z: 23.0
    valence: 13
    core: 10
    charge: 0.0
    file: /zhome/86/d/1666/PAW/gpaw-setups-0.9.20000/V.LDA.gz
    compensation charges: {type: gauss,
                           rc: 0.37,
                           lmax: 2}
    cutoffs: {filter: 2.14,
              core: 0.96}
    valence states:
      #              energy  rcut
      - 3s(2.00)   -69.819   1.254
      - 4s(2.00)    -4.846   1.254
      - 3p(6.00)   -43.961   1.281
      - 4p(0.00)    -1.526   1.281
      - 3d(3.00)    -5.381   1.169
      -  d          21.830   1.169
  
    # Using partial waves for V as LCAO basis

  Br:
    name: Bromine
    id: 10a25bbcb3273ec7d8d7f6fc01d2618d
    Z: 35.0
    valence: 7
    core: 28
    charge: 0.0
    file: /zhome/86/d/1666/PAW/gpaw-setups-0.9.20000/Br.LDA.gz
    compensation charges: {type: gauss,
                           rc: 0.35,
                           lmax: 2}
    cutoffs: {filter: 1.98,
              core: 2.38}
    valence states:
      #              energy  rcut
      - 4s(2.00)   -20.306   1.111
      - 4p(5.00)    -8.003   1.111
      -  s           6.906   1.111
      -  p          19.208   1.111
      -  d           0.000   1.111
  
    # Using partial waves for Br as LCAO basis

Reference energy: -167392.690611  # eV

eigensolver:
  name: 'Davidson'
  niter: 2
  converge_bands: 'occupied'
Density mixing:
  Method: sum
  Backend: pulay
  Linear mixing parameter: 0.05
  old densities: 5
  Damping of long wavelength oscillations: 100
occupation numbers:
  Fermi-Dirac:
    width: 0.1000  # eV
  

poisson solver:
  ecut: 4800.0  # eV

xc functional:
  name: None

convergence criteria:
- Maximum [total energy] change in last 3 cyles: 0.0005 eV / valence electron
- Maximum integral of absolute [dens]ity change: 0.0001 electrons / valence electron
- Maximum integral of absolute [eigenst]ate change: 4e-08 eV^2 / valence electron
maximum number of iterations: 333

#      iter     time        total  log10-change:
#                          energy   eigst   dens
# iter:   1 12:50:01   -15.429794                  +2.6,+0.0,+0.0
# iter:   2 12:50:08   -15.613889   -0.30  -1.40   +2.6,+0.0,-0.0
# iter:   3 12:50:16   -15.503062   -1.20  -1.45   +2.7,+0.0,+0.0
# iter:   4 12:50:24   -15.522891   -1.81  -1.58   +2.7,+0.0,+0.0
# iter:   5 12:50:32   -15.544852   -2.51  -1.69   +2.7,-0.0,+0.0
# iter:   6 12:50:40   -15.546055   -3.46  -2.25   +2.7,-0.0,+0.0
# iter:   7 12:50:48   -15.542496c  -2.92  -2.29   +2.7,-0.0,+0.0
# iter:   8 12:50:56   -15.541210c  -3.55  -2.57   +2.7,-0.0,+0.0
# iter:   9 12:51:04   -15.540737c  -4.43  -2.61   +2.7,-0.0,+0.0
# iter:  10 12:51:12   -15.540524c  -4.79  -3.09   +2.7,-0.0,+0.0
# iter:  11 12:51:20   -15.540521c  -6.20  -3.81   +2.7,-0.0,+0.0
# iter:  12 12:51:27   -15.540521c  -6.50  -3.91   +2.7,-0.0,+0.0
# iter:  13 12:51:35   -15.540517c  -6.34  -3.94   +2.7,-0.0,+0.0
# iter:  14 12:51:43   -15.540520c  -7.94c -4.42c  +2.7,-0.0,+0.0
scf_steps: 14
energies:  # eV
  coulomb:          -9.075760
  zero:              0.021301
  xc:              -18.340868
  external:          0.000000
  kinetic:          11.858638
  spinorbit:         0.000000
  entropy:          -0.007664
  total:           -15.544352
  extrapolated:    -15.540520

dipole moment: [-4.669276, -8.528031, -1.793994]  # |e|*Ang

total magnetic moment: [2.722094, -0.000927, 0.000000]

local magnetic moments: [
  [ 2.475021, -0.000057,  0.000000],  # V  0
  [-0.003387,  0.014810, -0.000000],  # Br 1
  [-0.009983,  0.011449, -0.000000]]  # Br 2


Fermi level: 6.748 eV

kpt = [-0.417, -0.417, 0.000], weight = 0.007:
  Band      eig [eV]   occ [0-1]
     0       -58.001       1.000
   ...
    19         2.304       1.000
    20         2.640       1.000
    21         2.784       1.000
    22         2.984       1.000
    23         3.089       1.000
    24         5.569       1.000
    25         6.127       0.998
    26         6.233       0.994
    27         7.297       0.004
    28         7.573       0.000
    29         7.788       0.000
    30         8.177       0.000
    31         8.453       0.000
    32         8.898       0.000
    33         9.100       0.000
    34        11.006       0.000
   ...
    41        13.867       0.000

kpt = [-0.417, -0.333, 0.000], weight = 0.007:
  Band      eig [eV]   occ [0-1]
     0       -58.001       1.000
   ...
    19         2.289       1.000
    20         2.667       1.000
    21         2.910       1.000
    22         3.088       1.000
    23         3.156       1.000
    24         5.715       1.000
    25         6.097       0.999
    26         6.223       0.995
    27         7.249       0.007
    28         7.573       0.000
    29         7.921       0.000
    30         8.203       0.000
    31         8.340       0.000
    32         8.796       0.000
    33         9.032       0.000
    34        11.008       0.000
   ...
    41        13.974       0.000

kpt = [-0.417, -0.250, 0.000], weight = 0.007:
  Band      eig [eV]   occ [0-1]
     0       -58.001       1.000
   ...
    19         2.123       1.000
    20         2.800       1.000
    21         2.947       1.000
    22         3.224       1.000
    23         3.409       1.000
    24         5.903       1.000
    25         6.076       0.999
    26         6.205       0.996
    27         7.228       0.008
    28         7.529       0.000
    29         7.984       0.000
    30         8.192       0.000
    31         8.276       0.000
    32         8.709       0.000
    33         9.040       0.000
    34        11.147       0.000
   ...
    41        13.751       0.000
(only showing first 3 out of 144 k-points)

Gap: 0.718 eV
Transition (v -> c):
  (s=0, k=137, n=26, [0.50, -0.00, 0.00]) -> (s=0, k=137, n=27, [0.50, -0.00, 0.00])
# Writing to Conv_V/Conv_V_1.0/gsq-07.gpw (mode='')

---

timing:  # [seconds]
  Total: 126.218  # ━━━━━━━━━━━━━━━━━━━━━━━━━━━━━━━━━━━━━━━━━━━━━━━━━━━━━━━━━
  Init:   15.358  # ━━━━━━━
  SCF:   110.058  # ━━━━━━━━━━━━━━━━━━━━━━━━━━━━━━━━━━━━━━━━━━━━━━━━━╸

Max RSS: 357.473  # MiB
