#  __  _  _
# | _ |_)|_||  |
# |__||  | ||/\| - 24.1.0

User:   s194113@n-62-29-30
Date:   Wed Apr 24 22:08:22 2024
Arch:   x86_64
Pid:    30750
CWD:    /zhome/87/8/147075/10302/10302_NM/NiI2
Python: 3.8.5
gpaw:   /zhome/87/8/147075/venv-name/gpaw/gpaw (10808453a8)
_gpaw:  /zhome/87/8/147075/venv-name/gpaw/
        _gpaw.cpython-38-x86_64-linux-gnu.so (10808453a8)
ase:    /zhome/87/8/147075/venv-name/ase/ase (version 3.23.0b1-c36115a2db)
numpy:  /zhome/87/8/147075/venv-name/lib/python3.8/site-packages/numpy (version 1.24.4)
scipy:  /zhome/87/8/147075/venv-name/lib/python3.8/site-packages/scipy (version 1.10.1)
libxc:  4.3.4
units:  Angstrom and eV
cores: 12
OpenMP: False
OMP_NUM_THREADS: 1

---
input parameters:
  kpts: 
    density: 6.0
    gamma: True
  magmoms: [[1.28782608, 0, 0], [0.19870794, 0, 0], [0.19870794, 0, 0]]
  mixer: 
    backend: 'pulay'
    beta: 0.05
    method: 'sum'
    nmaxold: 5
    weight: 100
  mode: 
    name: 'pw'
    ecut: 50.0
    qspiral: array([0.33333333, 0.33333333, 0.        ])
  parallel: 
    kpt: None
    domain: 1
    band: 1
    order: 'kdb'
    stridebands: False
    augment_grids: False
    sl_auto: False
    sl_default: None
    sl_diagonalize: None
    sl_inverse_cholesky: None
    sl_lcao: None
    sl_lrtddft: None
    use_elpa: False
    elpasolver: '2stage'
    buffer_size: None
    gpu: False
  symmetry: 
    point_group: False
    time_reversal: False
  xc: 
    name: 'LDA'

#                        
#                        
#                        
#                        
#                        
#              I         
#                        
#        Ni              
#          I             
#                        
#                        
#                        
#                        
#                        

atoms: [  # symbols, positions [Ang] and initial magnetic moments
  [ Ni, [   0.000000,    0.000000,    7.513573], [ 1.288,  0.000,  0.000]], # 0
  [  I, [   1.984831,    1.145943,    9.027147], [ 0.199,  0.000,  0.000]], # 1
  [  I, [   0.000000,    2.291885,    6.000000], [ 0.199,  0.000,  0.000]]] # 2

cell: [  # Ang
#     x            y            z
  [   3.969662,    0.000000,    0.000000],
  [  -1.984831,    3.437828,    0.000000],
  [   0.000000,    0.000000,   15.027147]]

periodic: [True      , True      , False     ]
lengths:  [  3.969662,   3.969662,  15.027147]  # Ang
angles:   [ 90.000000,  90.000000, 120.000000]

symmetry:
  number of symmetries: 1
  rotations: [
    [[ 1,  0,  0], [ 0,  1,  0], [ 0,  0,  1]]]

bz sampling:
  number of bz points: 121
  number of ibz points: 121
  monkhorst-pack size: [11, 11, 1]
  monkhorst-pack shift: [0, 0, 0]
  points and weights: [
    [[ -0.45454545,  -0.45454545,   0.00000000], 0.00826446],  # 0
    [[ -0.45454545,  -0.36363636,   0.00000000], 0.00826446],  # 1
    [[ -0.45454545,  -0.27272727,   0.00000000], 0.00826446],  # 2
    [[ -0.45454545,  -0.18181818,   0.00000000], 0.00826446],  # 3
    [[ -0.45454545,  -0.09090909,   0.00000000], 0.00826446],  # 4
    [[ -0.45454545,   0.00000000,   0.00000000], 0.00826446],  # 5
    [[ -0.45454545,   0.09090909,   0.00000000], 0.00826446],  # 6
    [[ -0.45454545,   0.18181818,   0.00000000], 0.00826446],  # 7
    [[ -0.45454545,   0.27272727,   0.00000000], 0.00826446],  # 8
    [[ -0.45454545,   0.36363636,   0.00000000], 0.00826446],  # 9
    # ...
    [[  0.45454545,   0.45454545,   0.00000000], 0.00826446]]  # 120

plane wave coefficients: 172
cutoff: 50.0 eV

spin-components: 4  # (non-collinear spins)
bands: 40
valence electrons: 30.0
spin-degeneracy: 1
dtype: complex128

memory:
    wave functions: 25_710_080  # bytes  (2_142_506 per core)

parallelization:
    kpt:    12
    domain: 1
    band:   1

density:
  components: 4
  grid points: [ 7  7 25]
  charge: 0.0  # |e|

potential:
  grid points: [ 7  7 25]

species:
  Ni:
    name: Nickel
    id: 1802175e8de9ea26d9f4394ec1a7d564
    Z: 28.0
    valence: 16
    core: 12
    charge: 0.0
    file: /zhome/86/d/1666/PAW/gpaw-setups-0.9.20000/Ni.LDA.gz
    compensation charges: {type: gauss,
                           rc: 0.36,
                           lmax: 2}
    cutoffs: {filter: 2.14,
              core: 1.98}
    valence states:
      #              energy  rcut
      - 4s(2.00)    -5.858   1.164
      - 3p(6.00)   -71.266   1.207
      - 4p(0.00)    -1.338   1.207
      - 3d(8.00)    -9.141   1.138
      -  s          21.353   1.164
      -  d          18.071   1.138
  
    # Using partial waves for Ni as LCAO basis

  I:
    name: Iodine
    id: b559721c0c096a7b4c8fc0e0f4de5cf4
    Z: 53.0
    valence: 7
    core: 46
    charge: 0.0
    file: /zhome/86/d/1666/PAW/gpaw-setups-0.9.20000/I.LDA.gz
    compensation charges: {type: gauss,
                           rc: 0.37,
                           lmax: 2}
    cutoffs: {filter: 2.06,
              core: 2.90}
    valence states:
      #              energy  rcut
      - 5s(2.00)   -17.626   1.164
      - 5p(5.00)    -7.241   1.164
      -  s           9.585   1.164
      -  p          19.970   1.164
      -  d           0.000   1.164
  
    # Using partial waves for I as LCAO basis

Reference energy: -428067.566327  # eV

eigensolver:
  name: 'Davidson'
  niter: 2
  converge_bands: 'occupied'
Density mixing:
  Method: sum
  Backend: pulay
  Linear mixing parameter: 0.05
  old densities: 5
  Damping of long wavelength oscillations: 100
occupation numbers:
  Fermi-Dirac:
    width: 0.1000  # eV
  

poisson solver:
  ecut: 400.0  # eV

xc functional:
  name: None

convergence criteria:
- Maximum [total energy] change in last 3 cyles: 0.0005 eV / valence electron
- Maximum integral of absolute [dens]ity change: 0.0001 electrons / valence electron
- Maximum integral of absolute [eigenst]ate change: 4e-08 eV^2 / valence electron
maximum number of iterations: 333

#      iter     time        total  log10-change:
#                          energy   eigst   dens
# iter:   1 22:08:25   265.216032                  +1.7,+0.0,+0.0
# iter:   2 22:08:27   347.442800   -0.77  -0.52   +1.1,-0.0,-0.0
# iter:   3 22:08:28   351.862472   -1.45  -0.53   +1.0,-0.0,-0.0
# iter:   4 22:08:30   301.938613   -1.90  -0.53   +1.0,-0.0,+0.0
# iter:   5 22:08:32   329.006344   -0.18  -0.52   +0.9,-0.0,+0.0
# iter:   6 22:08:34   364.100361   -1.61  -0.49   +0.9,-0.0,+0.0
# iter:   7 22:08:35   378.872926   -1.85  -0.51   +0.9,-0.0,-0.0
# iter:   8 22:08:37   411.628584   -1.98  -0.53   +0.9,-0.0,-0.0
# iter:   9 22:08:39   412.979021   -3.04  -0.54   +0.9,-0.0,-0.0
# iter:  10 22:08:41   538.646521   -1.25  -0.54   +0.7,-0.0,-0.0
# iter:  11 22:08:42   696.934698   -0.69  -0.56   +0.6,-0.0,-0.0
# iter:  12 22:08:44   869.234788   -0.43  -0.58   +0.3,-0.0,-0.0
# iter:  13 22:08:46   870.068207   -1.90  -0.61   +0.3,-0.0,-0.0
# iter:  14 22:08:48   908.840657   -1.36  -0.62   +0.2,-0.0,+0.0
# iter:  15 22:08:49   855.928556   -0.91  -0.60   +0.3,+0.0,+0.0
# iter:  16 22:08:51   944.118364   -0.43  -0.79   -0.0,-0.0,+0.0
# iter:  17 22:08:53   937.670269   -1.71  -0.74   +0.1,-0.0,-0.0
# iter:  18 22:08:55   940.615994   -1.22  -0.84   -0.1,-0.0,-0.0
# iter:  19 22:08:56   944.093316   -1.78  -0.95   +0.0,+0.0,-0.0
# iter:  20 22:08:58   943.987466   -2.89  -1.37   -0.0,+0.0,+0.0
# iter:  21 22:09:00   945.211618   -2.54  -1.46   -0.0,+0.0,-0.0
# iter:  22 22:09:02   945.156500   -3.94  -1.87   -0.0,+0.0,-0.0
# iter:  23 22:09:03   945.195186   -4.13  -1.91   -0.0,+0.0,-0.0
# iter:  24 22:09:05   945.288343   -3.71  -1.95   -0.0,+0.0,-0.0
# iter:  25 22:09:07   945.300258   -4.75  -2.07   -0.0,+0.0,-0.0
# iter:  26 22:09:09   945.354365   -3.93  -2.09   +0.0,+0.0,-0.0
# iter:  27 22:09:10   945.356558   -4.62  -2.24   +0.0,+0.0,-0.0
# iter:  28 22:09:12   945.368249c  -4.16  -2.31   +0.0,-0.0,-0.0
# iter:  29 22:09:14   945.367246c  -5.32  -2.88   +0.0,-0.0,-0.0
# iter:  30 22:09:16   945.368517c  -5.60  -2.93   +0.0,-0.0,-0.0
# iter:  31 22:09:17   945.369095c  -6.05  -3.01   +0.0,-0.0,-0.0
# iter:  32 22:09:19   945.370010c  -5.94  -3.02   +0.0,-0.0,-0.0
# iter:  33 22:09:21   945.370033c  -6.46  -3.06   +0.0,-0.0,-0.0
# iter:  34 22:09:22   945.370019c  -6.79  -3.08   +0.0,-0.0,-0.0
# iter:  35 22:09:24   945.370008c  -7.03  -3.17   +0.0,-0.0,-0.0
# iter:  36 22:09:26   945.370039c  -6.29  -3.18   -0.0,-0.0,-0.0
# iter:  37 22:09:28   945.370060c  -7.70c -3.31   -0.0,-0.0,-0.0
# iter:  38 22:09:29   945.370176c  -6.06  -3.33   -0.0,-0.0,-0.0
# iter:  39 22:09:31   945.370184c  -7.05  -3.72   -0.0,-0.0,-0.0
# iter:  40 22:09:33   945.370185c  -8.18c -3.85   -0.0,-0.0,-0.0
# iter:  41 22:09:35   945.370191c  -7.17  -3.88   +0.0,+0.0,-0.0
# iter:  42 22:09:36   945.370195c  -8.17c -4.24c  +0.0,+0.0,-0.0
scf_steps: 42
energies:  # eV
  coulomb:        3321.776219
  zero:             -0.081440
  xc:              221.678425
  external:          0.000000
  kinetic:       -2597.957136
  spinorbit:         0.000000
  entropy:          -0.091743
  total:           945.324323
  extrapolated:    945.370195

dipole moment: [-9.115400, -15.788337, 0.088977]  # |e|*Ang

total magnetic moment: [0.000066, 0.000000, -0.000000]

local magnetic moments: [
  [ 0.000069,  0.000000,  0.000000],  # Ni 0
  [ 0.000006,  0.000001, -0.000000],  # I  1
  [ 0.000006,  0.000001, -0.000000]]  # I  2


Fermi level: -0.580 eV

kpt = [-0.455, -0.455, 0.000], weight = 0.008:
  Band      eig [eV]   occ [0-1]
     0      -163.411       1.000
   ...
    20        -5.666       1.000
    21        -5.241       1.000
    22        -5.144       1.000
    23        -5.018       1.000
    24        -3.667       1.000
    25        -3.530       1.000
    26        -2.806       1.000
    27        -1.692       1.000
    28        -0.222       0.027
    29        -0.097       0.008
    30        -0.044       0.005
    31         0.404       0.000
    32         0.923       0.000
    33         0.931       0.000
    34         2.052       0.000
    35         2.943       0.000
   ...
    39         5.543       0.000

kpt = [-0.455, -0.364, 0.000], weight = 0.008:
  Band      eig [eV]   occ [0-1]
     0      -152.956       1.000
   ...
    21        -5.358       1.000
    22        -5.239       1.000
    23        -5.127       1.000
    24        -3.503       1.000
    25        -2.602       1.000
    26        -2.414       1.000
    27        -0.949       0.976
    28        -0.690       0.750
    29        -0.388       0.128
    30         0.267       0.000
    31         0.653       0.000
    32         1.251       0.000
    33         1.537       0.000
    34         1.895       0.000
    35         2.689       0.000
    36         3.146       0.000
   ...
    39         5.631       0.000

kpt = [-0.455, -0.273, 0.000], weight = 0.008:
  Band      eig [eV]   occ [0-1]
     0      -151.384       1.000
   ...
    22        -5.470       1.000
    23        -5.405       1.000
    24        -2.943       1.000
    25        -2.168       1.000
    26        -1.836       1.000
    27        -1.488       1.000
    28        -1.260       0.999
    29        -1.127       0.996
    30        -0.061       0.006
    31         0.022       0.002
    32         1.348       0.000
    33         1.685       0.000
    34         2.287       0.000
    35         2.293       0.000
    36         3.122       0.000
    37         4.284       0.000
   ...
    39         4.829       0.000
(only showing first 3 out of 121 k-points)

No gap
# Writing to Conv_E/Conv_E_50.0/gsq-16.gpw (mode='')

---

timing:  # [seconds]
  Total: 74.703  # ━━━━━━━━━━━━━━━━━━━━━━━━━━━━━━━━━━━━━━━━━━━━━━━━━━━━━━━━━━
  Init:   0.879  # ╸
  SCF:   73.294  # ━━━━━━━━━━━━━━━━━━━━━━━━━━━━━━━━━━━━━━━━━━━━━━━━━━━━━━━━━

Max RSS: 542.895  # MiB
