#  __  _  _
# | _ |_)|_||  |
# |__||  | ||/\| - 24.1.0

User:   s194113@n-62-29-30
Date:   Wed Apr 24 21:55:30 2024
Arch:   x86_64
Pid:    30750
CWD:    /zhome/87/8/147075/10302/10302_NM/NiI2
Python: 3.8.5
gpaw:   /zhome/87/8/147075/venv-name/gpaw/gpaw (10808453a8)
_gpaw:  /zhome/87/8/147075/venv-name/gpaw/
        _gpaw.cpython-38-x86_64-linux-gnu.so (10808453a8)
ase:    /zhome/87/8/147075/venv-name/ase/ase (version 3.23.0b1-c36115a2db)
numpy:  /zhome/87/8/147075/venv-name/lib/python3.8/site-packages/numpy (version 1.24.4)
scipy:  /zhome/87/8/147075/venv-name/lib/python3.8/site-packages/scipy (version 1.10.1)
libxc:  4.3.4
units:  Angstrom and eV
cores: 12
OpenMP: False
OMP_NUM_THREADS: 1

---
input parameters:
  kpts: 
    density: 6.0
    gamma: True
  magmoms: [[1.28782608, 0, 0], [0.19870794, 0, 0], [0.19870794, 0, 0]]
  mixer: 
    backend: 'pulay'
    beta: 0.05
    method: 'sum'
    nmaxold: 5
    weight: 100
  mode: 
    name: 'pw'
    ecut: 50.0
    qspiral: array([0.45, 0.  , 0.  ])
  parallel: 
    kpt: None
    domain: 1
    band: 1
    order: 'kdb'
    stridebands: False
    augment_grids: False
    sl_auto: False
    sl_default: None
    sl_diagonalize: None
    sl_inverse_cholesky: None
    sl_lcao: None
    sl_lrtddft: None
    use_elpa: False
    elpasolver: '2stage'
    buffer_size: None
    gpu: False
  symmetry: 
    point_group: False
    time_reversal: False
  xc: 
    name: 'LDA'

#                        
#                        
#                        
#                        
#                        
#              I         
#                        
#        Ni              
#          I             
#                        
#                        
#                        
#                        
#                        

atoms: [  # symbols, positions [Ang] and initial magnetic moments
  [ Ni, [   0.000000,    0.000000,    7.513573], [ 1.288,  0.000,  0.000]], # 0
  [  I, [   1.984831,    1.145943,    9.027147], [ 0.199,  0.000,  0.000]], # 1
  [  I, [   0.000000,    2.291885,    6.000000], [ 0.199,  0.000,  0.000]]] # 2

cell: [  # Ang
#     x            y            z
  [   3.969662,    0.000000,    0.000000],
  [  -1.984831,    3.437828,    0.000000],
  [   0.000000,    0.000000,   15.027147]]

periodic: [True      , True      , False     ]
lengths:  [  3.969662,   3.969662,  15.027147]  # Ang
angles:   [ 90.000000,  90.000000, 120.000000]

symmetry:
  number of symmetries: 1
  rotations: [
    [[ 1,  0,  0], [ 0,  1,  0], [ 0,  0,  1]]]

bz sampling:
  number of bz points: 121
  number of ibz points: 121
  monkhorst-pack size: [11, 11, 1]
  monkhorst-pack shift: [0, 0, 0]
  points and weights: [
    [[ -0.45454545,  -0.45454545,   0.00000000], 0.00826446],  # 0
    [[ -0.45454545,  -0.36363636,   0.00000000], 0.00826446],  # 1
    [[ -0.45454545,  -0.27272727,   0.00000000], 0.00826446],  # 2
    [[ -0.45454545,  -0.18181818,   0.00000000], 0.00826446],  # 3
    [[ -0.45454545,  -0.09090909,   0.00000000], 0.00826446],  # 4
    [[ -0.45454545,   0.00000000,   0.00000000], 0.00826446],  # 5
    [[ -0.45454545,   0.09090909,   0.00000000], 0.00826446],  # 6
    [[ -0.45454545,   0.18181818,   0.00000000], 0.00826446],  # 7
    [[ -0.45454545,   0.27272727,   0.00000000], 0.00826446],  # 8
    [[ -0.45454545,   0.36363636,   0.00000000], 0.00826446],  # 9
    # ...
    [[  0.45454545,   0.45454545,   0.00000000], 0.00826446]]  # 120

plane wave coefficients: 172
cutoff: 50.0 eV

spin-components: 4  # (non-collinear spins)
bands: 40
valence electrons: 30.0
spin-degeneracy: 1
dtype: complex128

memory:
    wave functions: 25_710_080  # bytes  (2_142_506 per core)

parallelization:
    kpt:    12
    domain: 1
    band:   1

density:
  components: 4
  grid points: [ 7  7 25]
  charge: 0.0  # |e|

potential:
  grid points: [ 7  7 25]

species:
  Ni:
    name: Nickel
    id: 1802175e8de9ea26d9f4394ec1a7d564
    Z: 28.0
    valence: 16
    core: 12
    charge: 0.0
    file: /zhome/86/d/1666/PAW/gpaw-setups-0.9.20000/Ni.LDA.gz
    compensation charges: {type: gauss,
                           rc: 0.36,
                           lmax: 2}
    cutoffs: {filter: 2.14,
              core: 1.98}
    valence states:
      #              energy  rcut
      - 4s(2.00)    -5.858   1.164
      - 3p(6.00)   -71.266   1.207
      - 4p(0.00)    -1.338   1.207
      - 3d(8.00)    -9.141   1.138
      -  s          21.353   1.164
      -  d          18.071   1.138
  
    # Using partial waves for Ni as LCAO basis

  I:
    name: Iodine
    id: b559721c0c096a7b4c8fc0e0f4de5cf4
    Z: 53.0
    valence: 7
    core: 46
    charge: 0.0
    file: /zhome/86/d/1666/PAW/gpaw-setups-0.9.20000/I.LDA.gz
    compensation charges: {type: gauss,
                           rc: 0.37,
                           lmax: 2}
    cutoffs: {filter: 2.06,
              core: 2.90}
    valence states:
      #              energy  rcut
      - 5s(2.00)   -17.626   1.164
      - 5p(5.00)    -7.241   1.164
      -  s           9.585   1.164
      -  p          19.970   1.164
      -  d           0.000   1.164
  
    # Using partial waves for I as LCAO basis

Reference energy: -428067.566327  # eV

eigensolver:
  name: 'Davidson'
  niter: 2
  converge_bands: 'occupied'
Density mixing:
  Method: sum
  Backend: pulay
  Linear mixing parameter: 0.05
  old densities: 5
  Damping of long wavelength oscillations: 100
occupation numbers:
  Fermi-Dirac:
    width: 0.1000  # eV
  

poisson solver:
  ecut: 400.0  # eV

xc functional:
  name: None

convergence criteria:
- Maximum [total energy] change in last 3 cyles: 0.0005 eV / valence electron
- Maximum integral of absolute [dens]ity change: 0.0001 electrons / valence electron
- Maximum integral of absolute [eigenst]ate change: 4e-08 eV^2 / valence electron
maximum number of iterations: 333

#      iter     time        total  log10-change:
#                          energy   eigst   dens
# iter:   1 21:55:33   272.505845                  +1.7,+0.0,+0.0
# iter:   2 21:55:35   357.725626   -0.85  -0.51   +1.1,-0.0,+0.0
# iter:   3 21:55:37   365.842477   -1.58  -0.52   +1.0,-0.0,-0.0
# iter:   4 21:55:38   283.832567   -1.64  -0.52   +1.0,-0.0,-0.0
# iter:   5 21:55:40   284.078492   -2.61  -0.51   +1.0,-0.0,-0.0
# iter:   6 21:55:42   292.027898   -2.98  -0.51   +1.0,-0.0,-0.0
# iter:   7 21:55:44   480.553036   -0.09  -0.51   +0.9,-0.0,-0.0
# iter:   8 21:55:45   383.059551   +0.34  -0.41   +0.9,-0.0,+0.0
# iter:   9 21:55:47   526.739352   -0.17  -0.47   +0.8,-0.0,+0.0
# iter:  10 21:55:49   499.023402   -1.13  -0.50   +0.8,-0.0,+0.0
# iter:  11 21:55:51   540.191323   -1.40  -0.47   +0.8,-0.0,-0.0
# iter:  12 21:55:52   476.105389   -0.94  -0.45   +0.9,-0.0,-0.0
# iter:  13 21:55:54   603.497384   -0.32  -0.54   +0.8,-0.0,-0.0
# iter:  14 21:55:56   608.959323   +0.34  -0.45   +0.7,-0.0,+0.0
# iter:  15 21:55:58   526.316545   -0.50  -0.47   +0.8,-0.0,+0.0
# iter:  16 21:56:00   683.839702   +0.31  -0.55   +0.6,-0.0,+0.0
# iter:  17 21:56:01   736.995883   -0.22  -0.37   +0.5,-0.0,+0.0
# iter:  18 21:56:03   793.221307   -0.01  -0.36   +0.4,-0.0,+0.0
# iter:  19 21:56:05   794.977470   -0.58  -0.36   +0.4,-0.0,+0.0
# iter:  20 21:56:07   915.359452   -0.63  -0.35   +0.3,-0.0,+0.0
# iter:  21 21:56:08   855.670007   +0.37  -0.45   -0.0,-0.0,+0.0
# iter:  22 21:56:10   880.605429   -0.63  -0.35   +0.2,-0.0,-0.0
# iter:  23 21:56:12   901.714245   -0.74  -0.29   -0.0,-0.0,-0.0
# iter:  24 21:56:14   974.069725   -0.33  -0.34   +0.0,+0.0,+0.0
# iter:  25 21:56:15   973.323454   -1.25  -0.51   -0.0,-0.0,-0.0
# iter:  26 21:56:17   971.923141   -1.99  -0.78   -0.0,-0.0,-0.0
# iter:  27 21:56:19   972.586790   -1.53  -0.82   -0.0,-0.0,-0.0
# iter:  28 21:56:21   970.712375   -1.89  -0.90   -0.0,-0.0,-0.0
# iter:  29 21:56:23   972.268670   -2.71  -1.10   -0.0,-0.0,-0.0
# iter:  30 21:56:25   973.593466   -2.95  -1.15   -0.0,-0.0,-0.0
# iter:  31 21:56:26   976.643887   -2.07  -1.23   -0.0,-0.0,-0.0
# iter:  32 21:56:28   976.672194   -3.37  -1.51   -0.0,-0.0,-0.0
# iter:  33 21:56:30   976.714746   -3.33  -1.52   +0.0,+0.0,-0.0
# iter:  34 21:56:32   976.651334   -3.51  -1.64   +0.0,+0.0,-0.0
# iter:  35 21:56:33   976.656252   -4.76  -2.11   +0.0,+0.0,-0.0
# iter:  36 21:56:35   976.658578c  -5.23  -2.10   +0.0,+0.0,-0.0
# iter:  37 21:56:37   976.657105c  -4.37  -2.18   +0.0,+0.0,+0.0
# iter:  38 21:56:39   976.663713c  -4.68  -2.38   +0.0,+0.0,-0.0
# iter:  39 21:56:40   976.668193c  -4.64  -2.60   +0.0,+0.0,-0.0
# iter:  40 21:56:42   976.668393c  -6.11  -2.97   +0.0,+0.0,-0.0
# iter:  41 21:56:44   976.668720c  -6.31  -2.97   +0.0,+0.0,+0.0
# iter:  42 21:56:45   976.668704c  -6.13  -2.98   +0.0,+0.0,-0.0
# iter:  43 21:56:47   976.668579c  -6.54  -3.23   +0.0,+0.0,-0.0
# iter:  44 21:56:49   976.668550c  -7.86c -3.50   +0.0,+0.0,-0.0
# iter:  45 21:56:51   976.668506c  -6.79  -3.59   +0.0,+0.0,-0.0
# iter:  46 21:56:52   976.668519c  -7.88c -4.06c  +0.0,+0.0,-0.0
scf_steps: 46
energies:  # eV
  coulomb:        3412.292404
  zero:             -0.275506
  xc:              225.523350
  external:          0.000000
  kinetic:       -2660.824327
  spinorbit:         0.000000
  entropy:          -0.094803
  total:           976.621118
  extrapolated:    976.668519

dipole moment: [-9.272052, -15.951923, 0.096047]  # |e|*Ang

total magnetic moment: [0.000022, 0.000002, -0.000000]

local magnetic moments: [
  [-0.000014,  0.000000,  0.000000],  # Ni 0
  [ 0.000003,  0.000007, -0.000000],  # I  1
  [-0.000001,  0.000007, -0.000000]]  # I  2


Fermi level: -0.587 eV

kpt = [-0.455, -0.455, 0.000], weight = 0.008:
  Band      eig [eV]   occ [0-1]
     0      -153.692       1.000
   ...
    21        -5.599       1.000
    22        -5.457       1.000
    23        -5.172       1.000
    24        -3.767       1.000
    25        -3.042       1.000
    26        -1.810       1.000
    27        -1.734       1.000
    28        -0.747       0.832
    29        -0.212       0.023
    30        -0.134       0.011
    31         0.236       0.000
    32         0.712       0.000
    33         1.229       0.000
    34         1.760       0.000
    35         1.968       0.000
    36         3.518       0.000
   ...
    39         4.594       0.000

kpt = [-0.455, -0.364, 0.000], weight = 0.008:
  Band      eig [eV]   occ [0-1]
     0      -142.331       1.000
   ...
    22        -5.663       1.000
    23        -5.176       1.000
    24        -3.414       1.000
    25        -2.381       1.000
    26        -1.734       1.000
    27        -1.681       1.000
    28        -1.189       0.998
    29        -0.693       0.743
    30        -0.158       0.014
    31         0.069       0.001
    32         1.181       0.000
    33         1.566       0.000
    34         1.968       0.000
    35         2.143       0.000
    36         3.610       0.000
    37         3.800       0.000
   ...
    39         5.360       0.000

kpt = [-0.455, -0.273, 0.000], weight = 0.008:
  Band      eig [eV]   occ [0-1]
     0      -141.746       1.000
   ...
    23        -5.266       1.000
    24        -3.859       1.000
    25        -3.273       1.000
    26        -2.296       1.000
    27        -2.012       1.000
    28        -1.086       0.993
    29        -0.865       0.941
    30        -0.667       0.690
    31         1.021       0.000
    32         1.262       0.000
    33         1.409       0.000
    34         1.892       0.000
    35         2.207       0.000
    36         2.750       0.000
    37         3.012       0.000
    38         4.168       0.000
    39         4.864       0.000
(only showing first 3 out of 121 k-points)

No gap
# Writing to Conv_E/Conv_E_50.0/gsq-09.gpw (mode='')

---

timing:  # [seconds]
  Total: 82.280  # ━━━━━━━━━━━━━━━━━━━━━━━━━━━━━━━━━━━━━━━━━━━━━━━━━━━━━━━━━━
  Init:   0.885  # ╸
  SCF:   81.028  # ━━━━━━━━━━━━━━━━━━━━━━━━━━━━━━━━━━━━━━━━━━━━━━━━━━━━━━━━━

Max RSS: 357.496  # MiB
