#  __  _  _
# | _ |_)|_||  |
# |__||  | ||/\| - 24.1.0

User:   s194113@n-62-29-30
Date:   Wed Apr 24 22:20:57 2024
Arch:   x86_64
Pid:    30750
CWD:    /zhome/87/8/147075/10302/10302_NM/NiI2
Python: 3.8.5
gpaw:   /zhome/87/8/147075/venv-name/gpaw/gpaw (10808453a8)
_gpaw:  /zhome/87/8/147075/venv-name/gpaw/
        _gpaw.cpython-38-x86_64-linux-gnu.so (10808453a8)
ase:    /zhome/87/8/147075/venv-name/ase/ase (version 3.23.0b1-c36115a2db)
numpy:  /zhome/87/8/147075/venv-name/lib/python3.8/site-packages/numpy (version 1.24.4)
scipy:  /zhome/87/8/147075/venv-name/lib/python3.8/site-packages/scipy (version 1.10.1)
libxc:  4.3.4
units:  Angstrom and eV
cores: 12
OpenMP: False
OMP_NUM_THREADS: 1

---
input parameters:
  kpts: 
    density: 6.0
    gamma: True
  magmoms: [[1.28782608, 0, 0], [0.19870794, 0, 0], [0.19870794, 0, 0]]
  mixer: 
    backend: 'pulay'
    beta: 0.05
    method: 'sum'
    nmaxold: 5
    weight: 100
  mode: 
    name: 'pw'
    ecut: 50.0
    qspiral: array([0.11904762, 0.11904762, 0.        ])
  parallel: 
    kpt: None
    domain: 1
    band: 1
    order: 'kdb'
    stridebands: False
    augment_grids: False
    sl_auto: False
    sl_default: None
    sl_diagonalize: None
    sl_inverse_cholesky: None
    sl_lcao: None
    sl_lrtddft: None
    use_elpa: False
    elpasolver: '2stage'
    buffer_size: None
    gpu: False
  symmetry: 
    point_group: False
    time_reversal: False
  xc: 
    name: 'LDA'

#                        
#                        
#                        
#                        
#                        
#              I         
#                        
#        Ni              
#          I             
#                        
#                        
#                        
#                        
#                        

atoms: [  # symbols, positions [Ang] and initial magnetic moments
  [ Ni, [   0.000000,    0.000000,    7.513573], [ 1.288,  0.000,  0.000]], # 0
  [  I, [   1.984831,    1.145943,    9.027147], [ 0.199,  0.000,  0.000]], # 1
  [  I, [   0.000000,    2.291885,    6.000000], [ 0.199,  0.000,  0.000]]] # 2

cell: [  # Ang
#     x            y            z
  [   3.969662,    0.000000,    0.000000],
  [  -1.984831,    3.437828,    0.000000],
  [   0.000000,    0.000000,   15.027147]]

periodic: [True      , True      , False     ]
lengths:  [  3.969662,   3.969662,  15.027147]  # Ang
angles:   [ 90.000000,  90.000000, 120.000000]

symmetry:
  number of symmetries: 1
  rotations: [
    [[ 1,  0,  0], [ 0,  1,  0], [ 0,  0,  1]]]

bz sampling:
  number of bz points: 121
  number of ibz points: 121
  monkhorst-pack size: [11, 11, 1]
  monkhorst-pack shift: [0, 0, 0]
  points and weights: [
    [[ -0.45454545,  -0.45454545,   0.00000000], 0.00826446],  # 0
    [[ -0.45454545,  -0.36363636,   0.00000000], 0.00826446],  # 1
    [[ -0.45454545,  -0.27272727,   0.00000000], 0.00826446],  # 2
    [[ -0.45454545,  -0.18181818,   0.00000000], 0.00826446],  # 3
    [[ -0.45454545,  -0.09090909,   0.00000000], 0.00826446],  # 4
    [[ -0.45454545,   0.00000000,   0.00000000], 0.00826446],  # 5
    [[ -0.45454545,   0.09090909,   0.00000000], 0.00826446],  # 6
    [[ -0.45454545,   0.18181818,   0.00000000], 0.00826446],  # 7
    [[ -0.45454545,   0.27272727,   0.00000000], 0.00826446],  # 8
    [[ -0.45454545,   0.36363636,   0.00000000], 0.00826446],  # 9
    # ...
    [[  0.45454545,   0.45454545,   0.00000000], 0.00826446]]  # 120

plane wave coefficients: 172
cutoff: 50.0 eV

spin-components: 4  # (non-collinear spins)
bands: 40
valence electrons: 30.0
spin-degeneracy: 1
dtype: complex128

memory:
    wave functions: 25_710_080  # bytes  (2_142_506 per core)

parallelization:
    kpt:    12
    domain: 1
    band:   1

density:
  components: 4
  grid points: [ 7  7 25]
  charge: 0.0  # |e|

potential:
  grid points: [ 7  7 25]

species:
  Ni:
    name: Nickel
    id: 1802175e8de9ea26d9f4394ec1a7d564
    Z: 28.0
    valence: 16
    core: 12
    charge: 0.0
    file: /zhome/86/d/1666/PAW/gpaw-setups-0.9.20000/Ni.LDA.gz
    compensation charges: {type: gauss,
                           rc: 0.36,
                           lmax: 2}
    cutoffs: {filter: 2.14,
              core: 1.98}
    valence states:
      #              energy  rcut
      - 4s(2.00)    -5.858   1.164
      - 3p(6.00)   -71.266   1.207
      - 4p(0.00)    -1.338   1.207
      - 3d(8.00)    -9.141   1.138
      -  s          21.353   1.164
      -  d          18.071   1.138
  
    # Using partial waves for Ni as LCAO basis

  I:
    name: Iodine
    id: b559721c0c096a7b4c8fc0e0f4de5cf4
    Z: 53.0
    valence: 7
    core: 46
    charge: 0.0
    file: /zhome/86/d/1666/PAW/gpaw-setups-0.9.20000/I.LDA.gz
    compensation charges: {type: gauss,
                           rc: 0.37,
                           lmax: 2}
    cutoffs: {filter: 2.06,
              core: 2.90}
    valence states:
      #              energy  rcut
      - 5s(2.00)   -17.626   1.164
      - 5p(5.00)    -7.241   1.164
      -  s           9.585   1.164
      -  p          19.970   1.164
      -  d           0.000   1.164
  
    # Using partial waves for I as LCAO basis

Reference energy: -428067.566327  # eV

eigensolver:
  name: 'Davidson'
  niter: 2
  converge_bands: 'occupied'
Density mixing:
  Method: sum
  Backend: pulay
  Linear mixing parameter: 0.05
  old densities: 5
  Damping of long wavelength oscillations: 100
occupation numbers:
  Fermi-Dirac:
    width: 0.1000  # eV
  

poisson solver:
  ecut: 400.0  # eV

xc functional:
  name: None

convergence criteria:
- Maximum [total energy] change in last 3 cyles: 0.0005 eV / valence electron
- Maximum integral of absolute [dens]ity change: 0.0001 electrons / valence electron
- Maximum integral of absolute [eigenst]ate change: 4e-08 eV^2 / valence electron
maximum number of iterations: 333

#      iter     time        total  log10-change:
#                          energy   eigst   dens
# iter:   1 22:20:59   283.134977                  +1.7,+0.0,+0.0
# iter:   2 22:21:01   372.567767   -1.02  -0.51   +1.1,-0.0,+0.0
# iter:   3 22:21:03   388.431299   -1.96  -0.52   +1.0,-0.0,+0.0
# iter:   4 22:21:05   366.830169   -2.14  -0.52   +1.0,-0.0,+0.0
# iter:   5 22:21:06   527.054607   -0.90  -0.52   +0.9,-0.0,+0.0
# iter:   6 22:21:08   670.754301   -0.75  -0.53   +0.7,-0.0,+0.0
# iter:   7 22:21:10   828.835640   -0.44  -0.51   +0.5,-0.0,+0.0
# iter:   8 22:21:12   970.477324   -0.04  -0.55   +0.2,-0.0,+0.0
# iter:   9 22:21:13   968.475356   -1.35  -0.61   +0.2,-0.0,+0.0
# iter:  10 22:21:15  1015.560595   -0.48  -0.64   +0.1,+0.0,-0.0
# iter:  11 22:21:17  1021.904383   -1.50  -0.86   +0.0,-0.0,-0.0
# iter:  12 22:21:19  1021.244776   -2.83  -1.01   -0.0,+0.0,-0.0
# iter:  13 22:21:21  1019.939101   -2.71  -0.93   +0.0,+0.0,-0.0
# iter:  14 22:21:22  1022.639514   -2.12  -1.01   +0.0,+0.0,-0.0
# iter:  15 22:21:24  1023.020591   -2.24  -1.38   +0.0,-0.0,+0.0
# iter:  16 22:21:26  1023.022145   -3.40  -1.53   +0.0,-0.0,+0.0
# iter:  17 22:21:28  1023.209542   -2.86  -1.55   -0.0,+0.0,+0.0
# iter:  18 22:21:29  1023.211778   -4.57  -2.23   +0.0,+0.0,+0.0
# iter:  19 22:21:31  1023.210841c  -4.57  -2.27   -0.0,+0.0,+0.0
# iter:  20 22:21:33  1023.204879c  -4.79  -2.43   -0.0,+0.0,+0.0
# iter:  21 22:21:34  1023.208351c  -5.00  -2.48   -0.0,+0.0,+0.0
# iter:  22 22:21:36  1023.212114c  -5.12  -2.65   -0.0,+0.0,+0.0
# iter:  23 22:21:38  1023.211998c  -6.16  -2.83   -0.0,+0.0,+0.0
# iter:  24 22:21:40  1023.212622c  -5.97  -2.85   -0.0,+0.0,+0.0
# iter:  25 22:21:41  1023.212590c  -6.29  -2.98   +0.0,-0.0,-0.0
# iter:  26 22:21:43  1023.212591c  -7.28  -3.01   +0.0,-0.0,+0.0
# iter:  27 22:21:45  1023.212686c  -6.76  -3.06   +0.0,+0.0,+0.0
# iter:  28 22:21:47  1023.212689c  -7.10  -3.11   +0.0,+0.0,+0.0
# iter:  29 22:21:48  1023.212672c  -7.28  -3.17   +0.0,-0.0,+0.0
# iter:  30 22:21:50  1023.212619c  -6.70  -3.39   +0.0,+0.0,+0.0
# iter:  31 22:21:52  1023.212562c  -7.09  -3.49   -0.0,+0.0,+0.0
# iter:  32 22:21:54  1023.212568c  -8.38c -3.53   -0.0,+0.0,-0.0
# iter:  33 22:21:55  1023.212633c  -7.02  -3.58   +0.0,+0.0,+0.0
# iter:  34 22:21:57  1023.212632c  -8.63c -4.12c  +0.0,-0.0,-0.0
scf_steps: 34
energies:  # eV
  coulomb:        3548.455042
  zero:             -0.511163
  xc:              231.184845
  external:          0.000000
  kinetic:       -2755.873357
  spinorbit:         0.000000
  entropy:          -0.085471
  total:          1023.169896
  extrapolated:   1023.212632

dipole moment: [-9.407154, -16.293668, 0.107020]  # |e|*Ang

total magnetic moment: [0.000046, -0.000001, -0.000000]

local magnetic moments: [
  [ 0.000025, -0.000000, -0.000000],  # Ni 0
  [-0.000004,  0.000006,  0.000000],  # I  1
  [-0.000004,  0.000006,  0.000000]]  # I  2


Fermi level: -0.561 eV

kpt = [-0.455, -0.455, 0.000], weight = 0.008:
  Band      eig [eV]   occ [0-1]
     0      -143.915       1.000
   ...
    21        -6.088       1.000
    22        -5.757       1.000
    23        -5.409       1.000
    24        -3.386       1.000
    25        -1.983       1.000
    26        -1.572       1.000
    27        -1.292       0.999
    28        -0.717       0.826
    29        -0.479       0.307
    30         0.071       0.002
    31         0.452       0.000
    32         1.043       0.000
    33         1.258       0.000
    34         1.608       0.000
    35         2.264       0.000
    36         3.223       0.000
   ...
    39         4.224       0.000

kpt = [-0.455, -0.364, 0.000], weight = 0.008:
  Band      eig [eV]   occ [0-1]
     0      -130.311       1.000
   ...
    20        -6.170       1.000
    21        -5.763       1.000
    22        -5.569       1.000
    23        -5.446       1.000
    24        -3.405       1.000
    25        -2.290       1.000
    26        -2.246       1.000
    27        -1.133       0.997
    28        -0.361       0.119
    29        -0.336       0.096
    30         0.587       0.000
    31         0.850       0.000
    32         0.910       0.000
    33         1.345       0.000
    34         1.968       0.000
    35         2.130       0.000
   ...
    39         4.853       0.000

kpt = [-0.455, -0.273, 0.000], weight = 0.008:
  Band      eig [eV]   occ [0-1]
     0      -138.817       1.000
   ...
    21        -6.018       1.000
    22        -5.602       1.000
    23        -5.438       1.000
    24        -3.442       1.000
    25        -3.228       1.000
    26        -1.782       1.000
    27        -1.436       1.000
    28        -0.654       0.717
    29        -0.327       0.088
    30        -0.174       0.020
    31         0.867       0.000
    32         0.907       0.000
    33         1.397       0.000
    34         1.955       0.000
    35         2.076       0.000
    36         2.985       0.000
   ...
    39         4.707       0.000
(only showing first 3 out of 121 k-points)

No gap
# Writing to Conv_E/Conv_E_50.0/gsq-25.gpw (mode='')

---

timing:  # [seconds]
  Total: 60.839  # ━━━━━━━━━━━━━━━━━━━━━━━━━━━━━━━━━━━━━━━━━━━━━━━━━━━━━━━━━━
  Init:   0.882  # ━
  SCF:   59.580  # ━━━━━━━━━━━━━━━━━━━━━━━━━━━━━━━━━━━━━━━━━━━━━━━━━━━━━━━━━

Max RSS: 747.891  # MiB
