#  __  _  _
# | _ |_)|_||  |
# |__||  | ||/\| - 24.1.0

User:   s194113@n-62-29-30
Date:   Wed Apr 24 21:49:20 2024
Arch:   x86_64
Pid:    30750
CWD:    /zhome/87/8/147075/10302/10302_NM/NiI2
Python: 3.8.5
gpaw:   /zhome/87/8/147075/venv-name/gpaw/gpaw (10808453a8)
_gpaw:  /zhome/87/8/147075/venv-name/gpaw/
        _gpaw.cpython-38-x86_64-linux-gnu.so (10808453a8)
ase:    /zhome/87/8/147075/venv-name/ase/ase (version 3.23.0b1-c36115a2db)
numpy:  /zhome/87/8/147075/venv-name/lib/python3.8/site-packages/numpy (version 1.24.4)
scipy:  /zhome/87/8/147075/venv-name/lib/python3.8/site-packages/scipy (version 1.10.1)
libxc:  4.3.4
units:  Angstrom and eV
cores: 12
OpenMP: False
OMP_NUM_THREADS: 1

---
input parameters:
  kpts: 
    density: 6.0
    gamma: True
  magmoms: [[1.28782608, 0, 0], [0.19870794, 0, 0], [0.19870794, 0, 0]]
  mixer: 
    backend: 'pulay'
    beta: 0.05
    method: 'sum'
    nmaxold: 5
    weight: 100
  mode: 
    name: 'pw'
    ecut: 50.0
    qspiral: array([0.2, 0. , 0. ])
  parallel: 
    kpt: None
    domain: 1
    band: 1
    order: 'kdb'
    stridebands: False
    augment_grids: False
    sl_auto: False
    sl_default: None
    sl_diagonalize: None
    sl_inverse_cholesky: None
    sl_lcao: None
    sl_lrtddft: None
    use_elpa: False
    elpasolver: '2stage'
    buffer_size: None
    gpu: False
  symmetry: 
    point_group: False
    time_reversal: False
  xc: 
    name: 'LDA'

#                        
#                        
#                        
#                        
#                        
#              I         
#                        
#        Ni              
#          I             
#                        
#                        
#                        
#                        
#                        

atoms: [  # symbols, positions [Ang] and initial magnetic moments
  [ Ni, [   0.000000,    0.000000,    7.513573], [ 1.288,  0.000,  0.000]], # 0
  [  I, [   1.984831,    1.145943,    9.027147], [ 0.199,  0.000,  0.000]], # 1
  [  I, [   0.000000,    2.291885,    6.000000], [ 0.199,  0.000,  0.000]]] # 2

cell: [  # Ang
#     x            y            z
  [   3.969662,    0.000000,    0.000000],
  [  -1.984831,    3.437828,    0.000000],
  [   0.000000,    0.000000,   15.027147]]

periodic: [True      , True      , False     ]
lengths:  [  3.969662,   3.969662,  15.027147]  # Ang
angles:   [ 90.000000,  90.000000, 120.000000]

symmetry:
  number of symmetries: 1
  rotations: [
    [[ 1,  0,  0], [ 0,  1,  0], [ 0,  0,  1]]]

bz sampling:
  number of bz points: 121
  number of ibz points: 121
  monkhorst-pack size: [11, 11, 1]
  monkhorst-pack shift: [0, 0, 0]
  points and weights: [
    [[ -0.45454545,  -0.45454545,   0.00000000], 0.00826446],  # 0
    [[ -0.45454545,  -0.36363636,   0.00000000], 0.00826446],  # 1
    [[ -0.45454545,  -0.27272727,   0.00000000], 0.00826446],  # 2
    [[ -0.45454545,  -0.18181818,   0.00000000], 0.00826446],  # 3
    [[ -0.45454545,  -0.09090909,   0.00000000], 0.00826446],  # 4
    [[ -0.45454545,   0.00000000,   0.00000000], 0.00826446],  # 5
    [[ -0.45454545,   0.09090909,   0.00000000], 0.00826446],  # 6
    [[ -0.45454545,   0.18181818,   0.00000000], 0.00826446],  # 7
    [[ -0.45454545,   0.27272727,   0.00000000], 0.00826446],  # 8
    [[ -0.45454545,   0.36363636,   0.00000000], 0.00826446],  # 9
    # ...
    [[  0.45454545,   0.45454545,   0.00000000], 0.00826446]]  # 120

plane wave coefficients: 172
cutoff: 50.0 eV

spin-components: 4  # (non-collinear spins)
bands: 40
valence electrons: 30.0
spin-degeneracy: 1
dtype: complex128

memory:
    wave functions: 25_710_080  # bytes  (2_142_506 per core)

parallelization:
    kpt:    12
    domain: 1
    band:   1

density:
  components: 4
  grid points: [ 7  7 25]
  charge: 0.0  # |e|

potential:
  grid points: [ 7  7 25]

species:
  Ni:
    name: Nickel
    id: 1802175e8de9ea26d9f4394ec1a7d564
    Z: 28.0
    valence: 16
    core: 12
    charge: 0.0
    file: /zhome/86/d/1666/PAW/gpaw-setups-0.9.20000/Ni.LDA.gz
    compensation charges: {type: gauss,
                           rc: 0.36,
                           lmax: 2}
    cutoffs: {filter: 2.14,
              core: 1.98}
    valence states:
      #              energy  rcut
      - 4s(2.00)    -5.858   1.164
      - 3p(6.00)   -71.266   1.207
      - 4p(0.00)    -1.338   1.207
      - 3d(8.00)    -9.141   1.138
      -  s          21.353   1.164
      -  d          18.071   1.138
  
    # Using partial waves for Ni as LCAO basis

  I:
    name: Iodine
    id: b559721c0c096a7b4c8fc0e0f4de5cf4
    Z: 53.0
    valence: 7
    core: 46
    charge: 0.0
    file: /zhome/86/d/1666/PAW/gpaw-setups-0.9.20000/I.LDA.gz
    compensation charges: {type: gauss,
                           rc: 0.37,
                           lmax: 2}
    cutoffs: {filter: 2.06,
              core: 2.90}
    valence states:
      #              energy  rcut
      - 5s(2.00)   -17.626   1.164
      - 5p(5.00)    -7.241   1.164
      -  s           9.585   1.164
      -  p          19.970   1.164
      -  d           0.000   1.164
  
    # Using partial waves for I as LCAO basis

Reference energy: -428067.566327  # eV

eigensolver:
  name: 'Davidson'
  niter: 2
  converge_bands: 'occupied'
Density mixing:
  Method: sum
  Backend: pulay
  Linear mixing parameter: 0.05
  old densities: 5
  Damping of long wavelength oscillations: 100
occupation numbers:
  Fermi-Dirac:
    width: 0.1000  # eV
  

poisson solver:
  ecut: 400.0  # eV

xc functional:
  name: None

convergence criteria:
- Maximum [total energy] change in last 3 cyles: 0.0005 eV / valence electron
- Maximum integral of absolute [dens]ity change: 0.0001 electrons / valence electron
- Maximum integral of absolute [eigenst]ate change: 4e-08 eV^2 / valence electron
maximum number of iterations: 333

#      iter     time        total  log10-change:
#                          energy   eigst   dens
# iter:   1 21:49:22   283.297023                  +1.7,+0.0,+0.0
# iter:   2 21:49:24   372.854393   -1.03  -0.51   +1.1,-0.0,+0.0
# iter:   3 21:49:26   388.043468   -1.87  -0.52   +1.0,-0.0,-0.0
# iter:   4 21:49:28   314.725509   -1.53  -0.52   +1.0,-0.0,-0.0
# iter:   5 21:49:29   528.936906   -0.47  -0.51   +0.9,-0.0,-0.0
# iter:   6 21:49:31   701.229729   -0.22  -0.51   +0.7,-0.0,-0.0
# iter:   7 21:49:33   866.561653   +0.17  -0.48   +0.4,-0.0,+0.0
# iter:   8 21:49:35   928.834349   -0.08  -0.49   +0.3,-0.0,+0.0
# iter:   9 21:49:37   945.028105   -1.16  -0.55   +0.3,-0.0,-0.0
# iter:  10 21:49:38  1014.158466   -0.65  -0.60   +0.1,-0.0,-0.0
# iter:  11 21:49:40  1020.423711   -1.96  -0.98   +0.1,-0.0,-0.0
# iter:  12 21:49:42  1020.845332   -3.16  -0.95   +0.0,-0.0,-0.0
# iter:  13 21:49:44  1018.282579   -1.27  -0.95   +0.0,-0.0,-0.0
# iter:  14 21:49:45  1023.639663   -1.86  -0.89   +0.0,-0.0,-0.0
# iter:  15 21:49:47  1023.910126   -2.50  -1.38   +0.0,+0.0,-0.0
# iter:  16 21:49:49  1023.689812   -3.20  -1.49   +0.0,-0.0,-0.0
# iter:  17 21:49:51  1023.703420   -3.69  -1.74   +0.0,-0.0,-0.0
# iter:  18 21:49:52  1023.768694   -4.78  -1.89   +0.0,-0.0,-0.0
# iter:  19 21:49:54  1023.862774   -3.59  -1.93   +0.0,-0.0,-0.0
# iter:  20 21:49:56  1023.879432   -4.11  -2.20   +0.0,+0.0,-0.0
# iter:  21 21:49:58  1023.923821   -5.00  -2.25   +0.0,+0.0,-0.0
# iter:  22 21:49:59  1023.976750   -4.44  -2.33   +0.0,-0.0,+0.0
# iter:  23 21:50:01  1023.990212   -5.03  -2.41   +0.0,-0.0,-0.0
# iter:  24 21:50:03  1023.994070   -5.49  -2.52   +0.0,-0.0,-0.0
# iter:  25 21:50:05  1023.995972c  -5.60  -2.60   +0.0,-0.0,-0.0
# iter:  26 21:50:06  1023.998337c  -5.67  -2.68   +0.0,+0.0,-0.0
# iter:  27 21:50:08  1024.001861c  -6.03  -2.70   +0.0,+0.0,+0.0
# iter:  28 21:50:10  1024.003266c  -6.33  -2.72   +0.0,+0.0,-0.0
# iter:  29 21:50:12  1024.003005c  -7.76c -2.72   +0.0,+0.0,-0.0
# iter:  30 21:50:13  1024.004767c  -6.17  -2.72   +0.0,-0.0,-0.0
# iter:  31 21:50:15  1024.005006c  -7.28  -2.76   +0.0,-0.0,-0.0
# iter:  32 21:50:17  1024.006818c  -6.09  -2.77   +0.0,+0.0,-0.0
# iter:  33 21:50:19  1024.007543c  -7.02  -2.78   +0.0,+0.0,-0.0
# iter:  34 21:50:20  1024.012427c  -4.81  -2.78   -0.0,-0.0,-0.0
# iter:  35 21:50:22  1024.012434c  -6.30  -3.12   -0.0,-0.0,-0.0
# iter:  36 21:50:24  1024.012218c  -5.68  -3.17   +0.0,+0.0,-0.0
# iter:  37 21:50:26  1024.012300c  -7.39  -3.38   +0.0,+0.0,+0.0
# iter:  38 21:50:27  1024.012503c  -6.56  -3.44   -0.0,-0.0,+0.0
# iter:  39 21:50:29  1024.012487c  -7.83c -3.80   +0.0,+0.0,+0.0
# iter:  40 21:50:31  1024.012489c  -8.71c -3.82   +0.0,+0.0,+0.0
# iter:  41 21:50:32  1024.012528c  -8.67c -3.78   +0.0,+0.0,+0.0
# iter:  42 21:50:34  1024.012574c  -7.83c -3.90   +0.0,+0.0,+0.0
# iter:  43 21:50:36  1024.012587c  -8.18c -3.95   -0.0,+0.0,+0.0
# iter:  44 21:50:38  1024.012593c  -8.86c -4.02c  -0.0,+0.0,+0.0
scf_steps: 44
energies:  # eV
  coulomb:        3550.947099
  zero:             -0.515618
  xc:              231.289559
  external:          0.000000
  kinetic:       -2757.668104
  spinorbit:         0.000000
  entropy:          -0.080686
  total:          1023.972250
  extrapolated:   1024.012593

dipole moment: [-9.411966, -16.293687, 0.106325]  # |e|*Ang

total magnetic moment: [-0.000003, 0.000002, 0.000000]

local magnetic moments: [
  [ 0.000077,  0.000000, -0.000000],  # Ni 0
  [ 0.000017, -0.000016,  0.000000],  # I  1
  [ 0.000022, -0.000009,  0.000000]]  # I  2


Fermi level: -0.553 eV

kpt = [-0.455, -0.455, 0.000], weight = 0.008:
  Band      eig [eV]   occ [0-1]
     0      -142.702       1.000
   ...
    21        -6.015       1.000
    22        -5.763       1.000
    23        -5.454       1.000
    24        -3.359       1.000
    25        -1.992       1.000
    26        -1.662       1.000
    27        -1.302       0.999
    28        -0.795       0.918
    29        -0.139       0.016
    30         0.100       0.001
    31         0.444       0.000
    32         0.844       0.000
    33         1.048       0.000
    34         1.874       0.000
    35         2.099       0.000
    36         2.967       0.000
   ...
    39         4.180       0.000

kpt = [-0.455, -0.364, 0.000], weight = 0.008:
  Band      eig [eV]   occ [0-1]
     0      -129.086       1.000
   ...
    21        -5.793       1.000
    22        -5.731       1.000
    23        -5.393       1.000
    24        -3.253       1.000
    25        -2.407       1.000
    26        -2.240       1.000
    27        -1.410       1.000
    28        -0.885       0.965
    29        -0.486       0.336
    30         0.407       0.000
    31         0.644       0.000
    32         1.237       0.000
    33         1.413       0.000
    34         2.133       0.000
    35         2.163       0.000
    36         3.643       0.000
   ...
    39         4.347       0.000

kpt = [-0.455, -0.273, 0.000], weight = 0.008:
  Band      eig [eV]   occ [0-1]
     0      -138.849       1.000
   ...
    20        -5.852       1.000
    21        -5.693       1.000
    22        -5.534       1.000
    23        -5.391       1.000
    24        -3.724       1.000
    25        -3.423       1.000
    26        -2.325       1.000
    27        -2.205       1.000
    28        -0.453       0.267
    29        -0.413       0.197
    30         0.096       0.002
    31         0.513       0.000
    32         1.136       0.000
    33         1.645       0.000
    34         1.846       0.000
    35         2.190       0.000
   ...
    39         4.436       0.000
(only showing first 3 out of 121 k-points)

No gap
# Writing to Conv_E/Conv_E_50.0/gsq-04.gpw (mode='')

---

timing:  # [seconds]
  Total: 78.258  # ━━━━━━━━━━━━━━━━━━━━━━━━━━━━━━━━━━━━━━━━━━━━━━━━━━━━━━━━━━
  Init:   0.893  # ╸
  SCF:   77.051  # ━━━━━━━━━━━━━━━━━━━━━━━━━━━━━━━━━━━━━━━━━━━━━━━━━━━━━━━━━

Max RSS: 255.891  # MiB
