#  __  _  _
# | _ |_)|_||  |
# |__||  | ||/\| - 24.1.0

User:   s194113@n-62-29-30
Date:   Wed Apr 24 21:53:17 2024
Arch:   x86_64
Pid:    30750
CWD:    /zhome/87/8/147075/10302/10302_NM/NiI2
Python: 3.8.5
gpaw:   /zhome/87/8/147075/venv-name/gpaw/gpaw (10808453a8)
_gpaw:  /zhome/87/8/147075/venv-name/gpaw/
        _gpaw.cpython-38-x86_64-linux-gnu.so (10808453a8)
ase:    /zhome/87/8/147075/venv-name/ase/ase (version 3.23.0b1-c36115a2db)
numpy:  /zhome/87/8/147075/venv-name/lib/python3.8/site-packages/numpy (version 1.24.4)
scipy:  /zhome/87/8/147075/venv-name/lib/python3.8/site-packages/scipy (version 1.10.1)
libxc:  4.3.4
units:  Angstrom and eV
cores: 12
OpenMP: False
OMP_NUM_THREADS: 1

---
input parameters:
  kpts: 
    density: 6.0
    gamma: True
  magmoms: [[1.28782608, 0, 0], [0.19870794, 0, 0], [0.19870794, 0, 0]]
  mixer: 
    backend: 'pulay'
    beta: 0.05
    method: 'sum'
    nmaxold: 5
    weight: 100
  mode: 
    name: 'pw'
    ecut: 50.0
    qspiral: array([0.35, 0.  , 0.  ])
  parallel: 
    kpt: None
    domain: 1
    band: 1
    order: 'kdb'
    stridebands: False
    augment_grids: False
    sl_auto: False
    sl_default: None
    sl_diagonalize: None
    sl_inverse_cholesky: None
    sl_lcao: None
    sl_lrtddft: None
    use_elpa: False
    elpasolver: '2stage'
    buffer_size: None
    gpu: False
  symmetry: 
    point_group: False
    time_reversal: False
  xc: 
    name: 'LDA'

#                        
#                        
#                        
#                        
#                        
#              I         
#                        
#        Ni              
#          I             
#                        
#                        
#                        
#                        
#                        

atoms: [  # symbols, positions [Ang] and initial magnetic moments
  [ Ni, [   0.000000,    0.000000,    7.513573], [ 1.288,  0.000,  0.000]], # 0
  [  I, [   1.984831,    1.145943,    9.027147], [ 0.199,  0.000,  0.000]], # 1
  [  I, [   0.000000,    2.291885,    6.000000], [ 0.199,  0.000,  0.000]]] # 2

cell: [  # Ang
#     x            y            z
  [   3.969662,    0.000000,    0.000000],
  [  -1.984831,    3.437828,    0.000000],
  [   0.000000,    0.000000,   15.027147]]

periodic: [True      , True      , False     ]
lengths:  [  3.969662,   3.969662,  15.027147]  # Ang
angles:   [ 90.000000,  90.000000, 120.000000]

symmetry:
  number of symmetries: 1
  rotations: [
    [[ 1,  0,  0], [ 0,  1,  0], [ 0,  0,  1]]]

bz sampling:
  number of bz points: 121
  number of ibz points: 121
  monkhorst-pack size: [11, 11, 1]
  monkhorst-pack shift: [0, 0, 0]
  points and weights: [
    [[ -0.45454545,  -0.45454545,   0.00000000], 0.00826446],  # 0
    [[ -0.45454545,  -0.36363636,   0.00000000], 0.00826446],  # 1
    [[ -0.45454545,  -0.27272727,   0.00000000], 0.00826446],  # 2
    [[ -0.45454545,  -0.18181818,   0.00000000], 0.00826446],  # 3
    [[ -0.45454545,  -0.09090909,   0.00000000], 0.00826446],  # 4
    [[ -0.45454545,   0.00000000,   0.00000000], 0.00826446],  # 5
    [[ -0.45454545,   0.09090909,   0.00000000], 0.00826446],  # 6
    [[ -0.45454545,   0.18181818,   0.00000000], 0.00826446],  # 7
    [[ -0.45454545,   0.27272727,   0.00000000], 0.00826446],  # 8
    [[ -0.45454545,   0.36363636,   0.00000000], 0.00826446],  # 9
    # ...
    [[  0.45454545,   0.45454545,   0.00000000], 0.00826446]]  # 120

plane wave coefficients: 172
cutoff: 50.0 eV

spin-components: 4  # (non-collinear spins)
bands: 40
valence electrons: 30.0
spin-degeneracy: 1
dtype: complex128

memory:
    wave functions: 25_710_080  # bytes  (2_142_506 per core)

parallelization:
    kpt:    12
    domain: 1
    band:   1

density:
  components: 4
  grid points: [ 7  7 25]
  charge: 0.0  # |e|

potential:
  grid points: [ 7  7 25]

species:
  Ni:
    name: Nickel
    id: 1802175e8de9ea26d9f4394ec1a7d564
    Z: 28.0
    valence: 16
    core: 12
    charge: 0.0
    file: /zhome/86/d/1666/PAW/gpaw-setups-0.9.20000/Ni.LDA.gz
    compensation charges: {type: gauss,
                           rc: 0.36,
                           lmax: 2}
    cutoffs: {filter: 2.14,
              core: 1.98}
    valence states:
      #              energy  rcut
      - 4s(2.00)    -5.858   1.164
      - 3p(6.00)   -71.266   1.207
      - 4p(0.00)    -1.338   1.207
      - 3d(8.00)    -9.141   1.138
      -  s          21.353   1.164
      -  d          18.071   1.138
  
    # Using partial waves for Ni as LCAO basis

  I:
    name: Iodine
    id: b559721c0c096a7b4c8fc0e0f4de5cf4
    Z: 53.0
    valence: 7
    core: 46
    charge: 0.0
    file: /zhome/86/d/1666/PAW/gpaw-setups-0.9.20000/I.LDA.gz
    compensation charges: {type: gauss,
                           rc: 0.37,
                           lmax: 2}
    cutoffs: {filter: 2.06,
              core: 2.90}
    valence states:
      #              energy  rcut
      - 5s(2.00)   -17.626   1.164
      - 5p(5.00)    -7.241   1.164
      -  s           9.585   1.164
      -  p          19.970   1.164
      -  d           0.000   1.164
  
    # Using partial waves for I as LCAO basis

Reference energy: -428067.566327  # eV

eigensolver:
  name: 'Davidson'
  niter: 2
  converge_bands: 'occupied'
Density mixing:
  Method: sum
  Backend: pulay
  Linear mixing parameter: 0.05
  old densities: 5
  Damping of long wavelength oscillations: 100
occupation numbers:
  Fermi-Dirac:
    width: 0.1000  # eV
  

poisson solver:
  ecut: 400.0  # eV

xc functional:
  name: None

convergence criteria:
- Maximum [total energy] change in last 3 cyles: 0.0005 eV / valence electron
- Maximum integral of absolute [dens]ity change: 0.0001 electrons / valence electron
- Maximum integral of absolute [eigenst]ate change: 4e-08 eV^2 / valence electron
maximum number of iterations: 333

#      iter     time        total  log10-change:
#                          energy   eigst   dens
# iter:   1 21:53:20   277.562414                  +1.7,+0.0,+0.0
# iter:   2 21:53:22   364.809606   -0.93  -0.51   +1.1,-0.0,-0.0
# iter:   3 21:53:24   380.898969   -1.75  -0.52   +1.0,-0.0,-0.0
# iter:   4 21:53:25   322.759766   -1.49  -0.52   +1.0,-0.0,+0.0
# iter:   5 21:53:27   511.236960   -0.68  -0.52   +0.8,-0.0,+0.0
# iter:   6 21:53:29   691.376951   -0.41  -0.53   +0.7,-0.0,-0.0
# iter:   7 21:53:31   877.263437   -0.04  -0.51   +0.4,-0.0,-0.0
# iter:   8 21:53:32   942.947373   +0.04  -0.55   +0.2,-0.0,+0.0
# iter:   9 21:53:34   938.181473   -0.65  -0.59   +0.1,-0.0,-0.0
# iter:  10 21:53:36   989.192058   -0.91  -0.55   +0.0,-0.0,+0.0
# iter:  11 21:53:38   996.866762   -1.27  -0.78   -0.0,-0.0,+0.0
# iter:  12 21:53:39   997.405327   -2.59  -1.08   -0.0,+0.0,+0.0
# iter:  13 21:53:41   996.892777   -2.74  -1.07   -0.0,+0.0,+0.0
# iter:  14 21:53:43   997.204354   -2.16  -1.22   -0.0,-0.0,+0.0
# iter:  15 21:53:45   997.095940   -3.38  -1.54   -0.0,-0.0,+0.0
# iter:  16 21:53:46   996.978645   -4.22  -1.59   -0.0,+0.0,+0.0
# iter:  17 21:53:48   996.957274   -3.98  -1.65   -0.0,-0.0,+0.0
# iter:  18 21:53:50   997.300612   -4.09  -1.76   -0.0,-0.0,+0.0
# iter:  19 21:53:52   997.434358   -4.77  -1.80   -0.0,-0.0,+0.0
# iter:  20 21:53:53   998.066162   -3.49  -1.81   -0.0,-0.0,+0.0
# iter:  21 21:53:55   998.285735   -3.72  -1.96   -0.0,-0.0,+0.0
# iter:  22 21:53:57   998.458433   -3.58  -2.05   -0.0,+0.0,+0.0
# iter:  23 21:53:59   998.469482   -4.73  -2.14   -0.0,-0.0,+0.0
# iter:  24 21:54:00   998.540972   -4.55  -2.14   -0.0,-0.0,+0.0
# iter:  25 21:54:02   998.561949   -4.90  -2.17   -0.0,-0.0,+0.0
# iter:  26 21:54:04   998.582564   -4.34  -2.19   -0.0,+0.0,+0.0
# iter:  27 21:54:06   998.579530   -5.41  -2.30   -0.0,-0.0,+0.0
# iter:  28 21:54:07   998.585492c  -4.77  -2.35   -0.0,-0.0,+0.0
# iter:  29 21:54:09   998.587282c  -4.93  -2.91   -0.0,+0.0,+0.0
# iter:  30 21:54:11   998.587331c  -6.00  -3.23   +0.0,+0.0,+0.0
# iter:  31 21:54:12   998.587326c  -7.47c -3.38   -0.0,-0.0,+0.0
# iter:  32 21:54:14   998.587400c  -7.38  -3.42   -0.0,-0.0,+0.0
# iter:  33 21:54:16   998.587413c  -7.79c -3.60   -0.0,-0.0,+0.0
# iter:  34 21:54:18   998.587348c  -6.81  -3.65   +0.0,+0.0,+0.0
# iter:  35 21:54:19   998.587350c  -8.21c -3.94   +0.0,+0.0,+0.0
# iter:  36 21:54:21   998.587382c  -7.75c -4.01c  +0.0,+0.0,+0.0
scf_steps: 36
energies:  # eV
  coulomb:        3476.506244
  zero:             -0.390273
  xc:              228.211947
  external:          0.000000
  kinetic:       -2705.701622
  spinorbit:         0.000000
  entropy:          -0.077827
  total:           998.548468
  extrapolated:    998.587382

dipole moment: [-9.329876, -16.109989, 0.100790]  # |e|*Ang

total magnetic moment: [0.000015, 0.000000, 0.000000]

local magnetic moments: [
  [ 0.000032,  0.000000,  0.000000],  # Ni 0
  [ 0.000002, -0.000003,  0.000000],  # I  1
  [ 0.000005, -0.000001,  0.000000]]  # I  2


Fermi level: -0.558 eV

kpt = [-0.455, -0.455, 0.000], weight = 0.008:
  Band      eig [eV]   occ [0-1]
     0      -148.695       1.000
   ...
    21        -5.619       1.000
    22        -5.350       1.000
    23        -5.308       1.000
    24        -3.930       1.000
    25        -2.250       1.000
    26        -2.028       1.000
    27        -1.529       1.000
    28        -1.030       0.991
    29        -0.142       0.015
    30        -0.016       0.004
    31         0.280       0.000
    32         0.852       0.000
    33         1.116       0.000
    34         1.949       0.000
    35         2.017       0.000
    36         3.008       0.000
   ...
    39         4.201       0.000

kpt = [-0.455, -0.364, 0.000], weight = 0.008:
  Band      eig [eV]   occ [0-1]
     0      -136.251       1.000
   ...
    22        -5.749       1.000
    23        -5.305       1.000
    24        -3.337       1.000
    25        -2.117       1.000
    26        -1.974       1.000
    27        -1.568       1.000
    28        -1.193       0.998
    29        -0.649       0.713
    30        -0.364       0.126
    31         0.338       0.000
    32         1.349       0.000
    33         1.471       0.000
    34         2.126       0.000
    35         2.243       0.000
    36         3.427       0.000
    37         3.984       0.000
   ...
    39         4.796       0.000

kpt = [-0.455, -0.273, 0.000], weight = 0.008:
  Band      eig [eV]   occ [0-1]
     0      -139.217       1.000
   ...
    21        -5.560       1.000
    22        -5.391       1.000
    23        -5.320       1.000
    24        -3.786       1.000
    25        -3.153       1.000
    26        -2.538       1.000
    27        -2.046       1.000
    28        -0.896       0.967
    29        -0.378       0.142
    30        -0.358       0.119
    31         0.410       0.000
    32         1.146       0.000
    33         1.649       0.000
    34         2.022       0.000
    35         2.382       0.000
    36         2.744       0.000
   ...
    39         4.773       0.000
(only showing first 3 out of 121 k-points)

No gap
# Writing to Conv_E/Conv_E_50.0/gsq-07.gpw (mode='')

