#  __  _  _
# | _ |_)|_||  |
# |__||  | ||/\| - 24.1.0

User:   s194113@n-62-29-30
Date:   Wed Apr 24 21:50:38 2024
Arch:   x86_64
Pid:    30750
CWD:    /zhome/87/8/147075/10302/10302_NM/NiI2
Python: 3.8.5
gpaw:   /zhome/87/8/147075/venv-name/gpaw/gpaw (10808453a8)
_gpaw:  /zhome/87/8/147075/venv-name/gpaw/
        _gpaw.cpython-38-x86_64-linux-gnu.so (10808453a8)
ase:    /zhome/87/8/147075/venv-name/ase/ase (version 3.23.0b1-c36115a2db)
numpy:  /zhome/87/8/147075/venv-name/lib/python3.8/site-packages/numpy (version 1.24.4)
scipy:  /zhome/87/8/147075/venv-name/lib/python3.8/site-packages/scipy (version 1.10.1)
libxc:  4.3.4
units:  Angstrom and eV
cores: 12
OpenMP: False
OMP_NUM_THREADS: 1

---
input parameters:
  kpts: 
    density: 6.0
    gamma: True
  magmoms: [[1.28782608, 0, 0], [0.19870794, 0, 0], [0.19870794, 0, 0]]
  mixer: 
    backend: 'pulay'
    beta: 0.05
    method: 'sum'
    nmaxold: 5
    weight: 100
  mode: 
    name: 'pw'
    ecut: 50.0
    qspiral: array([0.25, 0.  , 0.  ])
  parallel: 
    kpt: None
    domain: 1
    band: 1
    order: 'kdb'
    stridebands: False
    augment_grids: False
    sl_auto: False
    sl_default: None
    sl_diagonalize: None
    sl_inverse_cholesky: None
    sl_lcao: None
    sl_lrtddft: None
    use_elpa: False
    elpasolver: '2stage'
    buffer_size: None
    gpu: False
  symmetry: 
    point_group: False
    time_reversal: False
  xc: 
    name: 'LDA'

#                        
#                        
#                        
#                        
#                        
#              I         
#                        
#        Ni              
#          I             
#                        
#                        
#                        
#                        
#                        

atoms: [  # symbols, positions [Ang] and initial magnetic moments
  [ Ni, [   0.000000,    0.000000,    7.513573], [ 1.288,  0.000,  0.000]], # 0
  [  I, [   1.984831,    1.145943,    9.027147], [ 0.199,  0.000,  0.000]], # 1
  [  I, [   0.000000,    2.291885,    6.000000], [ 0.199,  0.000,  0.000]]] # 2

cell: [  # Ang
#     x            y            z
  [   3.969662,    0.000000,    0.000000],
  [  -1.984831,    3.437828,    0.000000],
  [   0.000000,    0.000000,   15.027147]]

periodic: [True      , True      , False     ]
lengths:  [  3.969662,   3.969662,  15.027147]  # Ang
angles:   [ 90.000000,  90.000000, 120.000000]

symmetry:
  number of symmetries: 1
  rotations: [
    [[ 1,  0,  0], [ 0,  1,  0], [ 0,  0,  1]]]

bz sampling:
  number of bz points: 121
  number of ibz points: 121
  monkhorst-pack size: [11, 11, 1]
  monkhorst-pack shift: [0, 0, 0]
  points and weights: [
    [[ -0.45454545,  -0.45454545,   0.00000000], 0.00826446],  # 0
    [[ -0.45454545,  -0.36363636,   0.00000000], 0.00826446],  # 1
    [[ -0.45454545,  -0.27272727,   0.00000000], 0.00826446],  # 2
    [[ -0.45454545,  -0.18181818,   0.00000000], 0.00826446],  # 3
    [[ -0.45454545,  -0.09090909,   0.00000000], 0.00826446],  # 4
    [[ -0.45454545,   0.00000000,   0.00000000], 0.00826446],  # 5
    [[ -0.45454545,   0.09090909,   0.00000000], 0.00826446],  # 6
    [[ -0.45454545,   0.18181818,   0.00000000], 0.00826446],  # 7
    [[ -0.45454545,   0.27272727,   0.00000000], 0.00826446],  # 8
    [[ -0.45454545,   0.36363636,   0.00000000], 0.00826446],  # 9
    # ...
    [[  0.45454545,   0.45454545,   0.00000000], 0.00826446]]  # 120

plane wave coefficients: 172
cutoff: 50.0 eV

spin-components: 4  # (non-collinear spins)
bands: 40
valence electrons: 30.0
spin-degeneracy: 1
dtype: complex128

memory:
    wave functions: 25_710_080  # bytes  (2_142_506 per core)

parallelization:
    kpt:    12
    domain: 1
    band:   1

density:
  components: 4
  grid points: [ 7  7 25]
  charge: 0.0  # |e|

potential:
  grid points: [ 7  7 25]

species:
  Ni:
    name: Nickel
    id: 1802175e8de9ea26d9f4394ec1a7d564
    Z: 28.0
    valence: 16
    core: 12
    charge: 0.0
    file: /zhome/86/d/1666/PAW/gpaw-setups-0.9.20000/Ni.LDA.gz
    compensation charges: {type: gauss,
                           rc: 0.36,
                           lmax: 2}
    cutoffs: {filter: 2.14,
              core: 1.98}
    valence states:
      #              energy  rcut
      - 4s(2.00)    -5.858   1.164
      - 3p(6.00)   -71.266   1.207
      - 4p(0.00)    -1.338   1.207
      - 3d(8.00)    -9.141   1.138
      -  s          21.353   1.164
      -  d          18.071   1.138
  
    # Using partial waves for Ni as LCAO basis

  I:
    name: Iodine
    id: b559721c0c096a7b4c8fc0e0f4de5cf4
    Z: 53.0
    valence: 7
    core: 46
    charge: 0.0
    file: /zhome/86/d/1666/PAW/gpaw-setups-0.9.20000/I.LDA.gz
    compensation charges: {type: gauss,
                           rc: 0.37,
                           lmax: 2}
    cutoffs: {filter: 2.06,
              core: 2.90}
    valence states:
      #              energy  rcut
      - 5s(2.00)   -17.626   1.164
      - 5p(5.00)    -7.241   1.164
      -  s           9.585   1.164
      -  p          19.970   1.164
      -  d           0.000   1.164
  
    # Using partial waves for I as LCAO basis

Reference energy: -428067.566327  # eV

eigensolver:
  name: 'Davidson'
  niter: 2
  converge_bands: 'occupied'
Density mixing:
  Method: sum
  Backend: pulay
  Linear mixing parameter: 0.05
  old densities: 5
  Damping of long wavelength oscillations: 100
occupation numbers:
  Fermi-Dirac:
    width: 0.1000  # eV
  

poisson solver:
  ecut: 400.0  # eV

xc functional:
  name: None

convergence criteria:
- Maximum [total energy] change in last 3 cyles: 0.0005 eV / valence electron
- Maximum integral of absolute [dens]ity change: 0.0001 electrons / valence electron
- Maximum integral of absolute [eigenst]ate change: 4e-08 eV^2 / valence electron
maximum number of iterations: 333

#      iter     time        total  log10-change:
#                          energy   eigst   dens
# iter:   1 21:50:41   281.671626                  +1.7,+0.0,+0.0
# iter:   2 21:50:42   370.569162   -1.00  -0.51   +1.1,-0.0,+0.0
# iter:   3 21:50:44   387.364208   -1.84  -0.52   +1.0,-0.0,-0.0
# iter:   4 21:50:46   382.112253   -2.36  -0.52   +1.0,-0.0,-0.0
# iter:   5 21:50:48   455.267550   -1.51  -0.52   +0.9,-0.0,-0.0
# iter:   6 21:50:49   688.512003   -0.17  -0.52   +0.7,-0.0,+0.0
# iter:   7 21:50:51   828.413567   -0.01  -0.48   +0.5,-0.0,-0.0
# iter:   8 21:50:53   889.153031   -0.46  -0.48   +0.4,-0.0,-0.0
# iter:   9 21:50:55   939.686390   -0.23  -0.56   +0.2,-0.0,-0.0
# iter:  10 21:50:56   946.591992   -0.04  -0.57   +0.0,-0.0,+0.0
# iter:  11 21:50:58   893.271661   -0.59  -0.48   -0.1,-0.0,-0.0
# iter:  12 21:51:00  1015.549909   -0.50  -0.46   +0.0,+0.0,-0.0
# iter:  13 21:51:02  1014.058861   -1.55  -0.95   +0.1,+0.0,+0.0
# iter:  14 21:51:04  1016.001073   -2.10  -1.11   +0.0,+0.0,+0.0
# iter:  15 21:51:05  1014.895572   -2.26  -1.27   -0.0,+0.0,+0.0
# iter:  16 21:51:07  1014.359280   -3.20  -1.41   -0.0,+0.0,+0.0
# iter:  17 21:51:09  1015.324356   -2.95  -1.45   -0.0,+0.0,+0.0
# iter:  18 21:51:11  1015.773478   -3.35  -1.61   -0.0,+0.0,+0.0
# iter:  19 21:51:12  1016.091180   -3.57  -1.63   -0.0,+0.0,+0.0
# iter:  20 21:51:14  1016.476893   -3.60  -1.69   -0.0,+0.0,+0.0
# iter:  21 21:51:16  1016.467127   -4.55  -1.96   -0.0,+0.0,+0.0
# iter:  22 21:51:18  1016.653772   -4.23  -2.00   -0.0,+0.0,+0.0
# iter:  23 21:51:19  1016.674306   -5.50  -1.99   -0.0,+0.0,+0.0
# iter:  24 21:51:21  1016.780322   -3.94  -2.01   +0.0,+0.0,+0.0
# iter:  25 21:51:23  1016.779987   -5.38  -2.65   +0.0,-0.0,+0.0
# iter:  26 21:51:25  1016.780476c  -5.80  -2.69   +0.0,-0.0,+0.0
# iter:  27 21:51:26  1016.782069c  -5.38  -2.76   -0.0,-0.0,+0.0
# iter:  28 21:51:28  1016.781941c  -6.39  -2.84   -0.0,-0.0,+0.0
# iter:  29 21:51:30  1016.782289c  -6.09  -2.89   -0.0,-0.0,+0.0
# iter:  30 21:51:31  1016.782328c  -6.86  -3.12   -0.0,-0.0,+0.0
# iter:  31 21:51:33  1016.782406c  -6.91  -3.20   +0.0,-0.0,+0.0
# iter:  32 21:51:35  1016.782395c  -6.87  -3.40   +0.0,-0.0,+0.0
# iter:  33 21:51:37  1016.782472c  -6.66  -3.51   +0.0,-0.0,+0.0
# iter:  34 21:51:38  1016.782463c  -7.47c -3.68   -0.0,-0.0,+0.0
# iter:  35 21:51:40  1016.782471c  -7.75c -3.74   +0.0,-0.0,+0.0
# iter:  36 21:51:42  1016.782448c  -7.58c -3.86   -0.0,+0.0,+0.0
# iter:  37 21:51:44  1016.782455c  -8.12c -3.96   -0.0,-0.0,+0.0
# iter:  38 21:51:45  1016.782453c  -8.93c -4.05c  -0.0,-0.0,+0.0
scf_steps: 38
energies:  # eV
  coulomb:        3529.782598
  zero:             -0.480980
  xc:              230.418350
  external:          0.000000
  kinetic:       -2742.895769
  spinorbit:         0.000000
  entropy:          -0.083492
  total:          1016.740707
  extrapolated:   1016.782453

dipole moment: [-9.389809, -16.242838, 0.105327]  # |e|*Ang

total magnetic moment: [-0.000019, -0.000000, 0.000000]

local magnetic moments: [
  [-0.000059, -0.000000,  0.000000],  # Ni 0
  [-0.000007,  0.000007,  0.000000],  # I  1
  [-0.000010,  0.000004,  0.000000]]  # I  2


Fermi level: -0.587 eV

kpt = [-0.455, -0.455, 0.000], weight = 0.008:
  Band      eig [eV]   occ [0-1]
     0      -144.445       1.000
   ...
    21        -5.764       1.000
    22        -5.738       1.000
    23        -5.375       1.000
    24        -3.607       1.000
    25        -1.942       1.000
    26        -1.897       1.000
    27        -1.277       0.999
    28        -1.082       0.993
    29        -0.042       0.004
    30         0.173       0.001
    31         0.174       0.000
    32         0.941       0.000
    33         0.990       0.000
    34         1.950       0.000
    35         2.075       0.000
    36         2.861       0.000
   ...
    39         4.165       0.000

kpt = [-0.455, -0.364, 0.000], weight = 0.008:
  Band      eig [eV]   occ [0-1]
     0      -131.143       1.000
   ...
    21        -5.755       1.000
    22        -5.685       1.000
    23        -5.454       1.000
    24        -3.169       1.000
    25        -2.411       1.000
    26        -2.199       1.000
    27        -1.512       1.000
    28        -0.976       0.980
    29        -0.507       0.311
    30        -0.005       0.003
    31         0.609       0.000
    32         1.318       0.000
    33         1.419       0.000
    34         2.136       0.000
    35         2.203       0.000
    36         3.559       0.000
   ...
    39         4.264       0.000

kpt = [-0.455, -0.273, 0.000], weight = 0.008:
  Band      eig [eV]   occ [0-1]
     0      -138.954       1.000
   ...
    21        -5.705       1.000
    22        -5.550       1.000
    23        -5.374       1.000
    24        -3.529       1.000
    25        -3.516       1.000
    26        -2.392       1.000
    27        -2.143       1.000
    28        -0.633       0.613
    29        -0.261       0.037
    30        -0.052       0.005
    31         0.209       0.000
    32         1.106       0.000
    33         1.712       0.000
    34         1.876       0.000
    35         2.328       0.000
    36         2.674       0.000
   ...
    39         4.574       0.000
(only showing first 3 out of 121 k-points)

No gap
# Writing to Conv_E/Conv_E_50.0/gsq-05.gpw (mode='')

