#  __  _  _
# | _ |_)|_||  |
# |__||  | ||/\| - 24.1.0

User:   s194113@n-62-29-30
Date:   Wed Apr 24 22:17:05 2024
Arch:   x86_64
Pid:    30750
CWD:    /zhome/87/8/147075/10302/10302_NM/NiI2
Python: 3.8.5
gpaw:   /zhome/87/8/147075/venv-name/gpaw/gpaw (10808453a8)
_gpaw:  /zhome/87/8/147075/venv-name/gpaw/
        _gpaw.cpython-38-x86_64-linux-gnu.so (10808453a8)
ase:    /zhome/87/8/147075/venv-name/ase/ase (version 3.23.0b1-c36115a2db)
numpy:  /zhome/87/8/147075/venv-name/lib/python3.8/site-packages/numpy (version 1.24.4)
scipy:  /zhome/87/8/147075/venv-name/lib/python3.8/site-packages/scipy (version 1.10.1)
libxc:  4.3.4
units:  Angstrom and eV
cores: 12
OpenMP: False
OMP_NUM_THREADS: 1

---
input parameters:
  kpts: 
    density: 6.0
    gamma: True
  magmoms: [[1.28782608, 0, 0], [0.19870794, 0, 0], [0.19870794, 0, 0]]
  mixer: 
    backend: 'pulay'
    beta: 0.05
    method: 'sum'
    nmaxold: 5
    weight: 100
  mode: 
    name: 'pw'
    ecut: 50.0
    qspiral: array([0.19047619, 0.19047619, 0.        ])
  parallel: 
    kpt: None
    domain: 1
    band: 1
    order: 'kdb'
    stridebands: False
    augment_grids: False
    sl_auto: False
    sl_default: None
    sl_diagonalize: None
    sl_inverse_cholesky: None
    sl_lcao: None
    sl_lrtddft: None
    use_elpa: False
    elpasolver: '2stage'
    buffer_size: None
    gpu: False
  symmetry: 
    point_group: False
    time_reversal: False
  xc: 
    name: 'LDA'

#                        
#                        
#                        
#                        
#                        
#              I         
#                        
#        Ni              
#          I             
#                        
#                        
#                        
#                        
#                        

atoms: [  # symbols, positions [Ang] and initial magnetic moments
  [ Ni, [   0.000000,    0.000000,    7.513573], [ 1.288,  0.000,  0.000]], # 0
  [  I, [   1.984831,    1.145943,    9.027147], [ 0.199,  0.000,  0.000]], # 1
  [  I, [   0.000000,    2.291885,    6.000000], [ 0.199,  0.000,  0.000]]] # 2

cell: [  # Ang
#     x            y            z
  [   3.969662,    0.000000,    0.000000],
  [  -1.984831,    3.437828,    0.000000],
  [   0.000000,    0.000000,   15.027147]]

periodic: [True      , True      , False     ]
lengths:  [  3.969662,   3.969662,  15.027147]  # Ang
angles:   [ 90.000000,  90.000000, 120.000000]

symmetry:
  number of symmetries: 1
  rotations: [
    [[ 1,  0,  0], [ 0,  1,  0], [ 0,  0,  1]]]

bz sampling:
  number of bz points: 121
  number of ibz points: 121
  monkhorst-pack size: [11, 11, 1]
  monkhorst-pack shift: [0, 0, 0]
  points and weights: [
    [[ -0.45454545,  -0.45454545,   0.00000000], 0.00826446],  # 0
    [[ -0.45454545,  -0.36363636,   0.00000000], 0.00826446],  # 1
    [[ -0.45454545,  -0.27272727,   0.00000000], 0.00826446],  # 2
    [[ -0.45454545,  -0.18181818,   0.00000000], 0.00826446],  # 3
    [[ -0.45454545,  -0.09090909,   0.00000000], 0.00826446],  # 4
    [[ -0.45454545,   0.00000000,   0.00000000], 0.00826446],  # 5
    [[ -0.45454545,   0.09090909,   0.00000000], 0.00826446],  # 6
    [[ -0.45454545,   0.18181818,   0.00000000], 0.00826446],  # 7
    [[ -0.45454545,   0.27272727,   0.00000000], 0.00826446],  # 8
    [[ -0.45454545,   0.36363636,   0.00000000], 0.00826446],  # 9
    # ...
    [[  0.45454545,   0.45454545,   0.00000000], 0.00826446]]  # 120

plane wave coefficients: 172
cutoff: 50.0 eV

spin-components: 4  # (non-collinear spins)
bands: 40
valence electrons: 30.0
spin-degeneracy: 1
dtype: complex128

memory:
    wave functions: 25_710_080  # bytes  (2_142_506 per core)

parallelization:
    kpt:    12
    domain: 1
    band:   1

density:
  components: 4
  grid points: [ 7  7 25]
  charge: 0.0  # |e|

potential:
  grid points: [ 7  7 25]

species:
  Ni:
    name: Nickel
    id: 1802175e8de9ea26d9f4394ec1a7d564
    Z: 28.0
    valence: 16
    core: 12
    charge: 0.0
    file: /zhome/86/d/1666/PAW/gpaw-setups-0.9.20000/Ni.LDA.gz
    compensation charges: {type: gauss,
                           rc: 0.36,
                           lmax: 2}
    cutoffs: {filter: 2.14,
              core: 1.98}
    valence states:
      #              energy  rcut
      - 4s(2.00)    -5.858   1.164
      - 3p(6.00)   -71.266   1.207
      - 4p(0.00)    -1.338   1.207
      - 3d(8.00)    -9.141   1.138
      -  s          21.353   1.164
      -  d          18.071   1.138
  
    # Using partial waves for Ni as LCAO basis

  I:
    name: Iodine
    id: b559721c0c096a7b4c8fc0e0f4de5cf4
    Z: 53.0
    valence: 7
    core: 46
    charge: 0.0
    file: /zhome/86/d/1666/PAW/gpaw-setups-0.9.20000/I.LDA.gz
    compensation charges: {type: gauss,
                           rc: 0.37,
                           lmax: 2}
    cutoffs: {filter: 2.06,
              core: 2.90}
    valence states:
      #              energy  rcut
      - 5s(2.00)   -17.626   1.164
      - 5p(5.00)    -7.241   1.164
      -  s           9.585   1.164
      -  p          19.970   1.164
      -  d           0.000   1.164
  
    # Using partial waves for I as LCAO basis

Reference energy: -428067.566327  # eV

eigensolver:
  name: 'Davidson'
  niter: 2
  converge_bands: 'occupied'
Density mixing:
  Method: sum
  Backend: pulay
  Linear mixing parameter: 0.05
  old densities: 5
  Damping of long wavelength oscillations: 100
occupation numbers:
  Fermi-Dirac:
    width: 0.1000  # eV
  

poisson solver:
  ecut: 400.0  # eV

xc functional:
  name: None

convergence criteria:
- Maximum [total energy] change in last 3 cyles: 0.0005 eV / valence electron
- Maximum integral of absolute [dens]ity change: 0.0001 electrons / valence electron
- Maximum integral of absolute [eigenst]ate change: 4e-08 eV^2 / valence electron
maximum number of iterations: 333

#      iter     time        total  log10-change:
#                          energy   eigst   dens
# iter:   1 22:17:07   278.485446                  +1.7,+0.0,+0.0
# iter:   2 22:17:09   366.088794   -0.95  -0.51   +1.1,-0.0,-0.0
# iter:   3 22:17:11   381.348784   -1.79  -0.52   +1.0,-0.0,+0.0
# iter:   4 22:17:13   295.979657   -1.35  -0.52   +1.0,-0.0,+0.0
# iter:   5 22:17:14   511.376984   -0.49  -0.52   +0.8,-0.0,+0.0
# iter:   6 22:17:16   703.263149   -0.18  -0.52   +0.7,-0.0,-0.0
# iter:   7 22:17:18   879.111927   +0.24  -0.49   +0.3,-0.0,-0.0
# iter:   8 22:17:20   924.653260   +0.02  -0.50   +0.2,-0.0,+0.0
# iter:   9 22:17:21   940.428053   -1.08  -0.55   +0.2,-0.0,-0.0
# iter:  10 22:17:23   996.104605   -0.56  -0.60   +0.1,-0.0,-0.0
# iter:  11 22:17:25   999.808707   -1.65  -0.97   +0.0,-0.0,-0.0
# iter:  12 22:17:27  1000.041811   -2.79  -0.91   +0.0,-0.0,+0.0
# iter:  13 22:17:29  1001.619073   -2.06  -0.95   -0.0,+0.0,+0.0
# iter:  14 22:17:30  1002.182310   -2.01  -1.12   -0.0,-0.0,+0.0
# iter:  15 22:17:32  1002.184269   -3.10  -1.40   +0.0,-0.0,+0.0
# iter:  16 22:17:34  1002.166702   -4.08  -1.40   +0.0,-0.0,+0.0
# iter:  17 22:17:36  1002.421125   -2.89  -1.42   -0.0,-0.0,-0.0
# iter:  18 22:17:37  1002.434230   -4.36  -1.89   -0.0,-0.0,+0.0
# iter:  19 22:17:39  1002.462366   -4.97  -1.92   -0.0,-0.0,+0.0
# iter:  20 22:17:41  1002.512740   -4.39  -1.96   -0.0,-0.0,+0.0
# iter:  21 22:17:42  1002.537663   -4.84  -2.09   -0.0,-0.0,-0.0
# iter:  22 22:17:44  1002.484131   -4.59  -2.11   -0.0,-0.0,+0.0
# iter:  23 22:17:46  1002.517258   -5.08  -2.10   -0.0,-0.0,+0.0
# iter:  24 22:17:48  1002.541909   -4.98  -2.11   -0.0,-0.0,+0.0
# iter:  25 22:17:49  1002.545137   -5.60  -2.10   -0.0,-0.0,+0.0
# iter:  26 22:17:51  1002.547258c  -6.70  -2.10   -0.0,-0.0,+0.0
# iter:  27 22:17:53  1002.580254   -4.59  -2.10   -0.0,-0.0,+0.0
# iter:  28 22:17:55  1002.580433   -3.44  -2.15   +0.0,+0.0,+0.0
# iter:  29 22:17:56  1002.606754   -4.30  -2.44   +0.0,-0.0,+0.0
# iter:  30 22:17:58  1002.607107   -4.62  -2.48   +0.0,-0.0,+0.0
# iter:  31 22:18:00  1002.609613c  -5.04  -2.64   -0.0,-0.0,+0.0
# iter:  32 22:18:02  1002.609850c  -5.47  -2.73   +0.0,+0.0,+0.0
# iter:  33 22:18:03  1002.609758c  -6.07  -3.04   -0.0,+0.0,+0.0
# iter:  34 22:18:05  1002.609723c  -7.12  -3.11   -0.0,+0.0,+0.0
# iter:  35 22:18:07  1002.608931c  -5.83  -3.13   +0.0,+0.0,-0.0
# iter:  36 22:18:08  1002.608953c  -7.72c -3.16   +0.0,+0.0,-0.0
# iter:  37 22:18:10  1002.609044c  -7.79c -3.16   +0.0,+0.0,-0.0
# iter:  38 22:18:12  1002.609217c  -7.44c -3.17   +0.0,+0.0,+0.0
# iter:  39 22:18:14  1002.609158c  -8.35c -3.17   +0.0,+0.0,+0.0
# iter:  40 22:18:15  1002.609188c  -7.40  -3.17   +0.0,+0.0,-0.0
# iter:  41 22:18:17  1002.609260c  -7.55c -3.17   +0.0,+0.0,+0.0
# iter:  42 22:18:19  1002.609260c  -8.75c -3.18   +0.0,+0.0,+0.0
# iter:  43 22:18:21  1002.609297c  -8.29c -3.18   +0.0,+0.0,+0.0
# iter:  44 22:18:22  1002.609346c  -8.32c -3.19   +0.0,+0.0,+0.0
# iter:  45 22:18:24  1002.609516c  -7.35  -3.19   +0.0,+0.0,+0.0
# iter:  46 22:18:26  1002.609580c  -7.83c -3.20   +0.0,+0.0,+0.0
# iter:  47 22:18:28  1002.610169c  -6.05  -3.20   +0.0,-0.0,+0.0
# iter:  48 22:18:29  1002.610245c  -6.94  -3.79   +0.0,-0.0,+0.0
# iter:  49 22:18:31  1002.610286c  -7.37  -3.88   +0.0,-0.0,+0.0
# iter:  50 22:18:33  1002.610293c  -8.38c -3.94   +0.0,-0.0,+0.0
# iter:  51 22:18:34  1002.610292c  -9.64c -3.94   +0.0,-0.0,+0.0
# iter:  52 22:18:36  1002.610285c  -8.33c -3.94   +0.0,-0.0,+0.0
# iter:  53 22:18:38  1002.610284c  -9.95c -3.90   +0.0,-0.0,+0.0
# iter:  54 22:18:40  1002.610302c  -8.71c -3.91   +0.0,-0.0,+0.0
# iter:  55 22:18:41  1002.610318c  -8.45c -3.90   +0.0,-0.0,+0.0
# iter:  56 22:18:43  1002.610326c  -8.81c -3.92   +0.0,-0.0,+0.0
# iter:  57 22:18:45  1002.610349c  -7.87c -3.96   +0.0,-0.0,+0.0
# iter:  58 22:18:47  1002.610358c  -8.19c -4.06c  +0.0,-0.0,+0.0
scf_steps: 58
energies:  # eV
  coulomb:        3488.039831
  zero:             -0.411559
  xc:              228.691975
  external:          0.000000
  kinetic:       -2713.668220
  spinorbit:         0.000000
  entropy:          -0.083339
  total:          1002.568689
  extrapolated:   1002.610358

dipole moment: [-9.326369, -16.153745, 0.101918]  # |e|*Ang

total magnetic moment: [0.000074, -0.000003, 0.000000]

local magnetic moments: [
  [ 0.000082, -0.000000, -0.000000],  # Ni 0
  [ 0.000004,  0.000004, -0.000000],  # I  1
  [ 0.000004,  0.000004, -0.000000]]  # I  2


Fermi level: -0.567 eV

kpt = [-0.455, -0.455, 0.000], weight = 0.008:
  Band      eig [eV]   occ [0-1]
     0      -149.741       1.000
   ...
    22        -5.605       1.000
    23        -5.363       1.000
    24        -3.430       1.000
    25        -2.360       1.000
    26        -2.316       1.000
    27        -0.967       0.982
    28        -0.899       0.965
    29        -0.573       0.516
    30        -0.143       0.014
    31         0.388       0.000
    32         0.948       0.000
    33         1.198       0.000
    34         2.094       0.000
    35         2.208       0.000
    36         3.156       0.000
    37         3.800       0.000
   ...
    39         4.242       0.000

kpt = [-0.455, -0.364, 0.000], weight = 0.008:
  Band      eig [eV]   occ [0-1]
     0      -136.939       1.000
   ...
    20        -5.960       1.000
    21        -5.798       1.000
    22        -5.716       1.000
    23        -5.275       1.000
    24        -3.371       1.000
    25        -2.180       1.000
    26        -1.813       1.000
    27        -1.323       0.999
    28        -0.427       0.198
    29        -0.272       0.050
    30         0.309       0.000
    31         0.583       0.000
    32         1.137       0.000
    33         1.299       0.000
    34         2.071       0.000
    35         2.093       0.000
   ...
    39         4.986       0.000

kpt = [-0.455, -0.273, 0.000], weight = 0.008:
  Band      eig [eV]   occ [0-1]
     0      -139.067       1.000
   ...
    22        -5.659       1.000
    23        -5.452       1.000
    24        -3.244       1.000
    25        -2.440       1.000
    26        -1.490       1.000
    27        -1.358       1.000
    28        -1.007       0.988
    29        -0.742       0.853
    30         0.237       0.000
    31         0.542       0.000
    32         1.096       0.000
    33         1.419       0.000
    34         1.819       0.000
    35         2.136       0.000
    36         2.973       0.000
    37         3.976       0.000
   ...
    39         5.031       0.000
(only showing first 3 out of 121 k-points)

No gap
# Writing to Conv_E/Conv_E_50.0/gsq-22.gpw (mode='')

