#  __  _  _
# | _ |_)|_||  |
# |__||  | ||/\| - 24.1.0

User:   s194113@n-62-29-30
Date:   Wed Apr 24 22:28:02 2024
Arch:   x86_64
Pid:    30750
CWD:    /zhome/87/8/147075/10302/10302_NM/NiI2
Python: 3.8.5
gpaw:   /zhome/87/8/147075/venv-name/gpaw/gpaw (10808453a8)
_gpaw:  /zhome/87/8/147075/venv-name/gpaw/
        _gpaw.cpython-38-x86_64-linux-gnu.so (10808453a8)
ase:    /zhome/87/8/147075/venv-name/ase/ase (version 3.23.0b1-c36115a2db)
numpy:  /zhome/87/8/147075/venv-name/lib/python3.8/site-packages/numpy (version 1.24.4)
scipy:  /zhome/87/8/147075/venv-name/lib/python3.8/site-packages/scipy (version 1.10.1)
libxc:  4.3.4
units:  Angstrom and eV
cores: 12
OpenMP: False
OMP_NUM_THREADS: 1

---
input parameters:
  kpts: 
    density: 6.0
    gamma: True
  magmoms: [[1.28782608, 0, 0], [0.19870794, 0, 0], [0.19870794, 0, 0]]
  mixer: 
    backend: 'pulay'
    beta: 0.05
    method: 'sum'
    nmaxold: 5
    weight: 100
  mode: 
    name: 'pw'
    ecut: 50.0
    qspiral: array([0.02380952, 0.02380952, 0.        ])
  parallel: 
    kpt: None
    domain: 1
    band: 1
    order: 'kdb'
    stridebands: False
    augment_grids: False
    sl_auto: False
    sl_default: None
    sl_diagonalize: None
    sl_inverse_cholesky: None
    sl_lcao: None
    sl_lrtddft: None
    use_elpa: False
    elpasolver: '2stage'
    buffer_size: None
    gpu: False
  symmetry: 
    point_group: False
    time_reversal: False
  xc: 
    name: 'LDA'

#                        
#                        
#                        
#                        
#                        
#              I         
#                        
#        Ni              
#          I             
#                        
#                        
#                        
#                        
#                        

atoms: [  # symbols, positions [Ang] and initial magnetic moments
  [ Ni, [   0.000000,    0.000000,    7.513573], [ 1.288,  0.000,  0.000]], # 0
  [  I, [   1.984831,    1.145943,    9.027147], [ 0.199,  0.000,  0.000]], # 1
  [  I, [   0.000000,    2.291885,    6.000000], [ 0.199,  0.000,  0.000]]] # 2

cell: [  # Ang
#     x            y            z
  [   3.969662,    0.000000,    0.000000],
  [  -1.984831,    3.437828,    0.000000],
  [   0.000000,    0.000000,   15.027147]]

periodic: [True      , True      , False     ]
lengths:  [  3.969662,   3.969662,  15.027147]  # Ang
angles:   [ 90.000000,  90.000000, 120.000000]

symmetry:
  number of symmetries: 1
  rotations: [
    [[ 1,  0,  0], [ 0,  1,  0], [ 0,  0,  1]]]

bz sampling:
  number of bz points: 121
  number of ibz points: 121
  monkhorst-pack size: [11, 11, 1]
  monkhorst-pack shift: [0, 0, 0]
  points and weights: [
    [[ -0.45454545,  -0.45454545,   0.00000000], 0.00826446],  # 0
    [[ -0.45454545,  -0.36363636,   0.00000000], 0.00826446],  # 1
    [[ -0.45454545,  -0.27272727,   0.00000000], 0.00826446],  # 2
    [[ -0.45454545,  -0.18181818,   0.00000000], 0.00826446],  # 3
    [[ -0.45454545,  -0.09090909,   0.00000000], 0.00826446],  # 4
    [[ -0.45454545,   0.00000000,   0.00000000], 0.00826446],  # 5
    [[ -0.45454545,   0.09090909,   0.00000000], 0.00826446],  # 6
    [[ -0.45454545,   0.18181818,   0.00000000], 0.00826446],  # 7
    [[ -0.45454545,   0.27272727,   0.00000000], 0.00826446],  # 8
    [[ -0.45454545,   0.36363636,   0.00000000], 0.00826446],  # 9
    # ...
    [[  0.45454545,   0.45454545,   0.00000000], 0.00826446]]  # 120

plane wave coefficients: 172
cutoff: 50.0 eV

spin-components: 4  # (non-collinear spins)
bands: 40
valence electrons: 30.0
spin-degeneracy: 1
dtype: complex128

memory:
    wave functions: 25_710_080  # bytes  (2_142_506 per core)

parallelization:
    kpt:    12
    domain: 1
    band:   1

density:
  components: 4
  grid points: [ 7  7 25]
  charge: 0.0  # |e|

potential:
  grid points: [ 7  7 25]

species:
  Ni:
    name: Nickel
    id: 1802175e8de9ea26d9f4394ec1a7d564
    Z: 28.0
    valence: 16
    core: 12
    charge: 0.0
    file: /zhome/86/d/1666/PAW/gpaw-setups-0.9.20000/Ni.LDA.gz
    compensation charges: {type: gauss,
                           rc: 0.36,
                           lmax: 2}
    cutoffs: {filter: 2.14,
              core: 1.98}
    valence states:
      #              energy  rcut
      - 4s(2.00)    -5.858   1.164
      - 3p(6.00)   -71.266   1.207
      - 4p(0.00)    -1.338   1.207
      - 3d(8.00)    -9.141   1.138
      -  s          21.353   1.164
      -  d          18.071   1.138
  
    # Using partial waves for Ni as LCAO basis

  I:
    name: Iodine
    id: b559721c0c096a7b4c8fc0e0f4de5cf4
    Z: 53.0
    valence: 7
    core: 46
    charge: 0.0
    file: /zhome/86/d/1666/PAW/gpaw-setups-0.9.20000/I.LDA.gz
    compensation charges: {type: gauss,
                           rc: 0.37,
                           lmax: 2}
    cutoffs: {filter: 2.06,
              core: 2.90}
    valence states:
      #              energy  rcut
      - 5s(2.00)   -17.626   1.164
      - 5p(5.00)    -7.241   1.164
      -  s           9.585   1.164
      -  p          19.970   1.164
      -  d           0.000   1.164
  
    # Using partial waves for I as LCAO basis

Reference energy: -428067.566327  # eV

eigensolver:
  name: 'Davidson'
  niter: 2
  converge_bands: 'occupied'
Density mixing:
  Method: sum
  Backend: pulay
  Linear mixing parameter: 0.05
  old densities: 5
  Damping of long wavelength oscillations: 100
occupation numbers:
  Fermi-Dirac:
    width: 0.1000  # eV
  

poisson solver:
  ecut: 400.0  # eV

xc functional:
  name: None

convergence criteria:
- Maximum [total energy] change in last 3 cyles: 0.0005 eV / valence electron
- Maximum integral of absolute [dens]ity change: 0.0001 electrons / valence electron
- Maximum integral of absolute [eigenst]ate change: 4e-08 eV^2 / valence electron
maximum number of iterations: 333

#      iter     time        total  log10-change:
#                          energy   eigst   dens
# iter:   1 22:28:05   286.158458                  +1.7,+0.0,+0.0
# iter:   2 22:28:06   376.813543   -1.10  -0.50   +1.1,-0.0,-0.0
# iter:   3 22:28:08   387.285655   -1.93  -0.52   +1.0,-0.0,+0.0
# iter:   4 22:28:10   288.949886   -1.55  -0.52   +1.0,-0.0,+0.0
# iter:   5 22:28:12   311.936554   -1.14  -0.50   +1.0,-0.0,+0.0
# iter:   6 22:28:13   326.063258   -2.29  -0.45   +1.0,-0.0,+0.0
# iter:   7 22:28:15   497.908177   +0.99  -0.48   +0.7,-0.0,-0.0
# iter:   8 22:28:17   598.322060   -0.42  -0.24   +0.8,-0.0,-0.0
# iter:   9 22:28:19   381.575517   +0.24  -0.43   +0.9,-0.0,+0.0
# iter:  10 22:28:21   580.299646   +0.32  -0.46   +0.8,-0.0,-0.0
# iter:  11 22:28:22   627.107686   -0.04  -0.46   +0.8,-0.0,-0.0
# iter:  12 22:28:24   481.512648   -0.83  -0.42   +0.9,-0.0,-0.0
# iter:  13 22:28:26   793.294170   +1.07  -0.50   +0.5,-0.0,-0.0
# iter:  14 22:28:28   812.892621   -0.09  -0.28   +0.6,-0.0,+0.0
# iter:  15 22:28:29   718.139968   +0.04  -0.50   +0.6,+0.0,-0.0
# iter:  16 22:28:31   734.257006   -0.49  -0.55   +0.7,-0.0,-0.0
# iter:  17 22:28:33   645.087015   +0.39  -0.58   +0.7,-0.0,-0.0
# iter:  18 22:28:35   798.949319   -0.10  -0.47   +0.6,-0.0,-0.0
# iter:  19 22:28:37   828.983794   +0.55  -0.53   +0.4,-0.0,-0.0
# iter:  20 22:28:38   595.011321   +1.13  -0.36   +0.2,-0.0,-0.0
# iter:  21 22:28:40   790.520065   +0.45  -0.23   +0.2,-0.0,-0.0
# iter:  22 22:28:42   220.413312   +1.11  -0.31   +0.3,-0.0,-0.0
# iter:  23 22:28:44   842.200611   +0.64  -0.11   +0.5,-0.0,-0.0
# iter:  24 22:28:45   945.144174   -0.42  -0.43   +0.4,-0.0,+0.0
# iter:  25 22:28:47   968.125079   -0.34  -0.53   +0.3,-0.0,-0.0
# iter:  26 22:28:49   989.387803   +0.40  -0.51   +0.2,-0.0,-0.0
# iter:  27 22:28:51   921.347639   +0.13  -0.28   +0.2,-0.0,-0.0
# iter:  28 22:28:52  1022.090746   +1.02  -0.09   +0.2,-0.0,-0.0
# iter:  29 22:28:54  1029.706034   +0.30  -0.60   +0.1,+0.0,+0.0
# iter:  30 22:28:56  1022.275003   -0.16  -0.56   +0.1,-0.0,+0.0
# iter:  31 22:28:58  1022.629338   -0.87  -0.52   +0.2,-0.0,+0.0
# iter:  32 22:28:59  1013.514234   -0.86  -0.54   +0.2,-0.0,-0.0
# iter:  33 22:29:01  1018.902279   -1.97  -0.51   +0.2,-0.0,+0.0
# iter:  34 22:29:03  1034.804377   -1.55  -0.56   +0.0,-0.0,+0.0
# iter:  35 22:29:05  1034.037323   -1.57  -0.95   -0.1,+0.0,-0.0
# iter:  36 22:29:07  1032.253971   -2.46  -1.23   -0.1,+0.0,-0.0
# iter:  37 22:29:08  1036.615493   -2.12  -1.26   -0.0,-0.0,-0.0
# iter:  38 22:29:10  1036.462836   -3.64  -1.41   -0.0,-0.0,-0.0
# iter:  39 22:29:12  1036.041773   -3.34  -1.42   -0.0,-0.0,+0.0
# iter:  40 22:29:14  1035.887984   -3.45  -1.42   -0.0,-0.0,+0.0
# iter:  41 22:29:15  1036.131630   -3.96  -1.60   -0.0,+0.0,+0.0
# iter:  42 22:29:17  1036.886197   -2.89  -1.64   -0.0,-0.0,-0.0
# iter:  43 22:29:19  1036.902411   -4.64  -1.75   -0.0,-0.0,-0.0
# iter:  44 22:29:21  1036.805059   -3.62  -1.80   -0.0,-0.0,+0.0
# iter:  45 22:29:22  1036.793247   -4.83  -1.86   -0.0,-0.0,+0.0
# iter:  46 22:29:24  1036.849083   -3.68  -1.93   -0.0,+0.0,+0.0
# iter:  47 22:29:26  1036.926474   -3.90  -2.15   -0.0,+0.0,-0.0
# iter:  48 22:29:28  1036.928665   -5.45  -2.33   -0.0,+0.0,-0.0
# iter:  49 22:29:29  1036.927221c  -5.65  -2.35   -0.0,+0.0,-0.0
# iter:  50 22:29:31  1036.939350c  -4.55  -2.36   -0.0,+0.0,-0.0
# iter:  51 22:29:33  1036.936637c  -5.45  -2.60   -0.0,+0.0,-0.0
# iter:  52 22:29:35  1036.936605c  -5.42  -2.58   -0.0,+0.0,-0.0
# iter:  53 22:29:36  1036.941062c  -5.77  -2.61   -0.0,+0.0,-0.0
# iter:  54 22:29:38  1036.939620c  -6.56  -2.61   -0.0,+0.0,-0.0
# iter:  55 22:29:40  1036.939260c  -6.32  -2.60   -0.0,+0.0,-0.0
# iter:  56 22:29:41  1036.939504c  -7.41c -2.65   -0.0,+0.0,-0.0
# iter:  57 22:29:43  1036.939049c  -6.31  -2.63   -0.0,+0.0,-0.0
# iter:  58 22:29:45  1036.938933c  -6.57  -2.69   -0.0,+0.0,-0.0
# iter:  59 22:29:47  1036.937733c  -6.37  -2.68   -0.0,+0.0,-0.0
# iter:  60 22:29:48  1036.937931c  -7.65c -2.68   -0.0,+0.0,-0.0
# iter:  61 22:29:50  1036.938229c  -6.82  -2.69   -0.0,+0.0,-0.0
# iter:  62 22:29:52  1036.939967c  -6.52  -2.68   -0.0,+0.0,-0.0
# iter:  63 22:29:54  1036.941265c  -6.29  -2.70   -0.0,+0.0,-0.0
# iter:  64 22:29:55  1036.942358c  -6.17  -2.70   -0.0,+0.0,-0.0
# iter:  65 22:29:57  1036.942328c  -7.13  -2.70   -0.0,+0.0,-0.0
# iter:  66 22:29:59  1036.944992c  -6.16  -2.71   -0.0,+0.0,-0.0
# iter:  67 22:30:01  1036.944948c  -7.97c -2.76   -0.0,+0.0,-0.0
# iter:  68 22:30:02  1036.947122c  -5.59  -2.76   -0.0,+0.0,-0.0
# iter:  69 22:30:04  1036.947248c  -6.39  -3.03   -0.0,+0.0,-0.0
# iter:  70 22:30:06  1036.947392c  -6.17  -3.04   -0.0,+0.0,-0.0
# iter:  71 22:30:07  1036.947033c  -6.52  -3.10   -0.0,-0.0,-0.0
# iter:  72 22:30:09  1036.947057c  -7.90c -3.31   -0.0,+0.0,-0.0
# iter:  73 22:30:11  1036.947367c  -6.47  -3.37   -0.0,-0.0,-0.0
# iter:  74 22:30:13  1036.947379c  -7.90c -3.61   +0.0,-0.0,+0.0
# iter:  75 22:30:14  1036.947282c  -7.26  -3.65   -0.0,-0.0,+0.0
# iter:  76 22:30:16  1036.947268c  -7.99c -3.99   -0.0,+0.0,-0.0
# iter:  77 22:30:18  1036.947263c  -9.30c -4.28c  -0.0,-0.0,+0.0
scf_steps: 77
energies:  # eV
  coulomb:        3589.871155
  zero:             -0.578381
  xc:              232.894617
  external:          0.000000
  kinetic:       -2785.198646
  spinorbit:         0.000000
  entropy:          -0.082964
  total:          1036.905781
  extrapolated:   1036.947263

dipole moment: [-9.460933, -16.386809, 0.109989]  # |e|*Ang

total magnetic moment: [-0.000027, -0.000000, 0.000000]

local magnetic moments: [
  [-0.000032,  0.000001,  0.000000],  # Ni 0
  [-0.000000, -0.000000, -0.000000],  # I  1
  [-0.000000, -0.000000, -0.000000]]  # I  2


Fermi level: -0.494 eV

kpt = [-0.455, -0.455, 0.000], weight = 0.008:
  Band      eig [eV]   occ [0-1]
     0      -139.445       1.000
   ...
    20        -6.822       1.000
    21        -6.715       1.000
    22        -5.774       1.000
    23        -5.702       1.000
    24        -2.713       1.000
    25        -2.392       1.000
    26        -1.132       0.998
    27        -0.811       0.959
    28        -0.366       0.218
    29        -0.146       0.030
    30        -0.123       0.024
    31         0.169       0.001
    32         1.199       0.000
    33         1.233       0.000
    34         1.632       0.000
    35         1.890       0.000
   ...
    39         3.952       0.000

kpt = [-0.455, -0.364, 0.000], weight = 0.008:
  Band      eig [eV]   occ [0-1]
     0      -125.503       1.000
   ...
    20        -6.300       1.000
    21        -5.992       1.000
    22        -5.629       1.000
    23        -5.492       1.000
    24        -3.355       1.000
    25        -3.018       1.000
    26        -1.634       1.000
    27        -1.172       0.999
    28        -0.338       0.173
    29         0.136       0.002
    30         0.182       0.001
    31         0.462       0.000
    32         1.285       0.000
    33         1.342       0.000
    34         2.116       0.000
    35         2.239       0.000
   ...
    39         4.475       0.000

kpt = [-0.455, -0.273, 0.000], weight = 0.008:
  Band      eig [eV]   occ [0-1]
     0      -138.658       1.000
   ...
    20        -5.596       1.000
    21        -5.552       1.000
    22        -5.436       1.000
    23        -5.426       1.000
    24        -3.941       1.000
    25        -3.823       1.000
    26        -2.283       1.000
    27        -2.273       1.000
    28         0.110       0.002
    29         0.185       0.001
    30         0.234       0.001
    31         0.520       0.000
    32         1.350       0.000
    33         1.382       0.000
    34         1.836       0.000
    35         1.844       0.000
   ...
    39         4.098       0.000
(only showing first 3 out of 121 k-points)

No gap
