#  __  _  _
# | _ |_)|_||  |
# |__||  | ||/\| - 24.1.0

User:   s194113@n-62-29-30
Date:   Wed Apr 24 21:56:53 2024
Arch:   x86_64
Pid:    30750
CWD:    /zhome/87/8/147075/10302/10302_NM/NiI2
Python: 3.8.5
gpaw:   /zhome/87/8/147075/venv-name/gpaw/gpaw (10808453a8)
_gpaw:  /zhome/87/8/147075/venv-name/gpaw/
        _gpaw.cpython-38-x86_64-linux-gnu.so (10808453a8)
ase:    /zhome/87/8/147075/venv-name/ase/ase (version 3.23.0b1-c36115a2db)
numpy:  /zhome/87/8/147075/venv-name/lib/python3.8/site-packages/numpy (version 1.24.4)
scipy:  /zhome/87/8/147075/venv-name/lib/python3.8/site-packages/scipy (version 1.10.1)
libxc:  4.3.4
units:  Angstrom and eV
cores: 12
OpenMP: False
OMP_NUM_THREADS: 1

---
input parameters:
  kpts: 
    density: 6.0
    gamma: True
  magmoms: [[1.28782608, 0, 0], [0.19870794, 0, 0], [0.19870794, 0, 0]]
  mixer: 
    backend: 'pulay'
    beta: 0.05
    method: 'sum'
    nmaxold: 5
    weight: 100
  mode: 
    name: 'pw'
    ecut: 50.0
    qspiral: array([0.5, 0. , 0. ])
  parallel: 
    kpt: None
    domain: 1
    band: 1
    order: 'kdb'
    stridebands: False
    augment_grids: False
    sl_auto: False
    sl_default: None
    sl_diagonalize: None
    sl_inverse_cholesky: None
    sl_lcao: None
    sl_lrtddft: None
    use_elpa: False
    elpasolver: '2stage'
    buffer_size: None
    gpu: False
  symmetry: 
    point_group: False
    time_reversal: False
  xc: 
    name: 'LDA'

#                        
#                        
#                        
#                        
#                        
#              I         
#                        
#        Ni              
#          I             
#                        
#                        
#                        
#                        
#                        

atoms: [  # symbols, positions [Ang] and initial magnetic moments
  [ Ni, [   0.000000,    0.000000,    7.513573], [ 1.288,  0.000,  0.000]], # 0
  [  I, [   1.984831,    1.145943,    9.027147], [ 0.199,  0.000,  0.000]], # 1
  [  I, [   0.000000,    2.291885,    6.000000], [ 0.199,  0.000,  0.000]]] # 2

cell: [  # Ang
#     x            y            z
  [   3.969662,    0.000000,    0.000000],
  [  -1.984831,    3.437828,    0.000000],
  [   0.000000,    0.000000,   15.027147]]

periodic: [True      , True      , False     ]
lengths:  [  3.969662,   3.969662,  15.027147]  # Ang
angles:   [ 90.000000,  90.000000, 120.000000]

symmetry:
  number of symmetries: 1
  rotations: [
    [[ 1,  0,  0], [ 0,  1,  0], [ 0,  0,  1]]]

bz sampling:
  number of bz points: 121
  number of ibz points: 121
  monkhorst-pack size: [11, 11, 1]
  monkhorst-pack shift: [0, 0, 0]
  points and weights: [
    [[ -0.45454545,  -0.45454545,   0.00000000], 0.00826446],  # 0
    [[ -0.45454545,  -0.36363636,   0.00000000], 0.00826446],  # 1
    [[ -0.45454545,  -0.27272727,   0.00000000], 0.00826446],  # 2
    [[ -0.45454545,  -0.18181818,   0.00000000], 0.00826446],  # 3
    [[ -0.45454545,  -0.09090909,   0.00000000], 0.00826446],  # 4
    [[ -0.45454545,   0.00000000,   0.00000000], 0.00826446],  # 5
    [[ -0.45454545,   0.09090909,   0.00000000], 0.00826446],  # 6
    [[ -0.45454545,   0.18181818,   0.00000000], 0.00826446],  # 7
    [[ -0.45454545,   0.27272727,   0.00000000], 0.00826446],  # 8
    [[ -0.45454545,   0.36363636,   0.00000000], 0.00826446],  # 9
    # ...
    [[  0.45454545,   0.45454545,   0.00000000], 0.00826446]]  # 120

plane wave coefficients: 172
cutoff: 50.0 eV

spin-components: 4  # (non-collinear spins)
bands: 40
valence electrons: 30.0
spin-degeneracy: 1
dtype: complex128

memory:
    wave functions: 25_710_080  # bytes  (2_142_506 per core)

parallelization:
    kpt:    12
    domain: 1
    band:   1

density:
  components: 4
  grid points: [ 7  7 25]
  charge: 0.0  # |e|

potential:
  grid points: [ 7  7 25]

species:
  Ni:
    name: Nickel
    id: 1802175e8de9ea26d9f4394ec1a7d564
    Z: 28.0
    valence: 16
    core: 12
    charge: 0.0
    file: /zhome/86/d/1666/PAW/gpaw-setups-0.9.20000/Ni.LDA.gz
    compensation charges: {type: gauss,
                           rc: 0.36,
                           lmax: 2}
    cutoffs: {filter: 2.14,
              core: 1.98}
    valence states:
      #              energy  rcut
      - 4s(2.00)    -5.858   1.164
      - 3p(6.00)   -71.266   1.207
      - 4p(0.00)    -1.338   1.207
      - 3d(8.00)    -9.141   1.138
      -  s          21.353   1.164
      -  d          18.071   1.138
  
    # Using partial waves for Ni as LCAO basis

  I:
    name: Iodine
    id: b559721c0c096a7b4c8fc0e0f4de5cf4
    Z: 53.0
    valence: 7
    core: 46
    charge: 0.0
    file: /zhome/86/d/1666/PAW/gpaw-setups-0.9.20000/I.LDA.gz
    compensation charges: {type: gauss,
                           rc: 0.37,
                           lmax: 2}
    cutoffs: {filter: 2.06,
              core: 2.90}
    valence states:
      #              energy  rcut
      - 5s(2.00)   -17.626   1.164
      - 5p(5.00)    -7.241   1.164
      -  s           9.585   1.164
      -  p          19.970   1.164
      -  d           0.000   1.164
  
    # Using partial waves for I as LCAO basis

Reference energy: -428067.566327  # eV

eigensolver:
  name: 'Davidson'
  niter: 2
  converge_bands: 'occupied'
Density mixing:
  Method: sum
  Backend: pulay
  Linear mixing parameter: 0.05
  old densities: 5
  Damping of long wavelength oscillations: 100
occupation numbers:
  Fermi-Dirac:
    width: 0.1000  # eV
  

poisson solver:
  ecut: 400.0  # eV

xc functional:
  name: None

convergence criteria:
- Maximum [total energy] change in last 3 cyles: 0.0005 eV / valence electron
- Maximum integral of absolute [dens]ity change: 0.0001 electrons / valence electron
- Maximum integral of absolute [eigenst]ate change: 4e-08 eV^2 / valence electron
maximum number of iterations: 333

#      iter     time        total  log10-change:
#                          energy   eigst   dens
# iter:   1 21:56:55   269.729302                  +1.7,+0.0,+0.0
# iter:   2 21:56:57   353.822496   -0.82  -0.51   +1.1,-0.0,-0.0
# iter:   3 21:56:59   361.792270   -1.55  -0.53   +1.0,-0.0,+0.0
# iter:   4 21:57:01   285.298873   -1.67  -0.53   +1.0,-0.0,+0.0
# iter:   5 21:57:02   285.301198   -3.09  -0.52   +1.0,-0.0,-0.0
# iter:   6 21:57:04   549.432527   +0.91  -0.52   +0.7,-0.0,-0.0
# iter:   7 21:57:06   568.883726   +0.62  -0.20   +0.8,-0.0,+0.0
# iter:   8 21:57:08   573.239043   +0.47  -0.51   +0.8,-0.0,+0.0
# iter:   9 21:57:09   492.554163   -0.60  -0.35   +0.8,-0.0,-0.0
# iter:  10 21:57:11   545.758912   +0.11  -0.53   +0.8,-0.0,-0.0
# iter:  11 21:57:13   500.195539   -0.86  -0.37   +0.8,-0.0,-0.0
# iter:  12 21:57:15   558.097202   -0.88  -0.33   +0.8,-0.0,-0.0
# iter:  13 21:57:16   695.614714   -1.02  -0.38   +0.6,-0.0,-0.0
# iter:  14 21:57:18   799.971686   +0.08  -0.45   +0.5,+0.0,-0.0
# iter:  15 21:57:20   839.366977   -0.67  -0.59   +0.4,-0.0,-0.0
# iter:  16 21:57:22   537.986587   +1.36  -0.71   +0.5,+0.0,-0.0
# iter:  17 21:57:23   802.667197   +1.36  -0.02   +0.5,-0.0,-0.0
# iter:  18 21:57:25   768.252096   +0.52  -0.57   +0.5,-0.0,+0.0
# iter:  19 21:57:27   837.772631   -0.27  -0.60   +0.4,-0.0,+0.0
# iter:  20 21:57:29   886.714213   -0.91  -0.72   +0.4,+0.0,+0.0
# iter:  21 21:57:31   880.198721   -1.49  -0.78   +0.4,-0.0,+0.0
# iter:  22 21:57:32   921.832386   -1.31  -0.75   +0.3,+0.0,+0.0
# iter:  23 21:57:34   951.998653   -0.29  -0.74   -0.0,-0.0,-0.0
# iter:  24 21:57:36   959.166434   -1.78  -0.60   +0.0,-0.0,-0.0
# iter:  25 21:57:38   955.995124   -1.37  -0.62   +0.1,+0.0,+0.0
# iter:  26 21:57:39   948.285115   -1.53  -0.81   -0.1,+0.0,+0.0
# iter:  27 21:57:41   963.959168   -1.50  -0.82   -0.0,+0.0,+0.0
# iter:  28 21:57:43   963.763597   -1.79  -0.94   +0.0,+0.0,+0.0
# iter:  29 21:57:45   962.395111   -2.65  -1.04   +0.1,+0.0,+0.0
# iter:  30 21:57:46   961.442175   -2.95  -1.12   +0.1,+0.0,+0.0
# iter:  31 21:57:48   962.054275   -2.40  -1.18   +0.1,+0.0,+0.0
# iter:  32 21:57:50   964.032402   -2.56  -1.31   +0.0,-0.0,+0.0
# iter:  33 21:57:52   963.991949   -3.43  -1.68   +0.0,-0.0,+0.0
# iter:  34 21:57:53   963.863129   -4.08  -1.72   +0.0,-0.0,-0.0
# iter:  35 21:57:55   963.548754   -3.85  -1.73   +0.0,-0.0,-0.0
# iter:  36 21:57:57   963.559410   -5.15  -1.75   +0.0,-0.0,-0.0
# iter:  37 21:57:59   963.548167c  -6.19  -1.74   +0.0,-0.0,-0.0
# iter:  38 21:58:00   963.641132   -4.78  -1.74   +0.0,-0.0,-0.0
# iter:  39 21:58:02   963.687208   -4.79  -1.75   +0.0,-0.0,-0.0
# iter:  40 21:58:04   963.614008   -5.28  -1.74   +0.0,-0.0,-0.0
# iter:  41 21:58:06   963.906057   -4.43  -1.74   +0.0,-0.0,-0.0
# iter:  42 21:58:07   963.938264   -5.31  -1.75   +0.0,-0.0,-0.0
# iter:  43 21:58:09   964.041269   -4.85  -1.76   +0.0,-0.0,-0.0
# iter:  44 21:58:11   964.062281   -5.62  -1.76   +0.0,-0.0,-0.0
# iter:  45 21:58:13   964.596405   -2.62  -1.76   -0.0,-0.0,+0.0
# iter:  46 21:58:14   964.598548   -3.88  -1.93   -0.0,-0.0,+0.0
# iter:  47 21:58:16   964.639221   -4.21  -2.03   +0.0,-0.0,+0.0
# iter:  48 21:58:18   964.646791   -4.71  -2.15   +0.0,-0.0,+0.0
# iter:  49 21:58:19   964.680706   -3.87  -2.18   +0.0,-0.0,+0.0
# iter:  50 21:58:21   964.684007   -4.64  -2.48   +0.0,-0.0,+0.0
# iter:  51 21:58:23   964.683022c  -4.55  -2.56   -0.0,-0.0,+0.0
# iter:  52 21:58:25   964.683414c  -5.54  -2.83   -0.0,+0.0,+0.0
# iter:  53 21:58:26   964.683254c  -6.88  -2.91   -0.0,+0.0,+0.0
# iter:  54 21:58:28   964.683834c  -6.53  -2.91   -0.0,+0.0,+0.0
# iter:  55 21:58:30   964.686517c  -5.44  -2.96   -0.0,+0.0,+0.0
# iter:  56 21:58:32   964.686530c  -6.67  -3.11   -0.0,+0.0,+0.0
# iter:  57 21:58:33   964.686500c  -6.70  -3.13   -0.0,+0.0,+0.0
# iter:  58 21:58:35   964.686472c  -7.43c -3.14   -0.0,+0.0,+0.0
# iter:  59 21:58:37   964.686478c  -8.77c -3.15   -0.0,+0.0,+0.0
# iter:  60 21:58:39   964.686549c  -8.13c -3.14   -0.0,+0.0,+0.0
# iter:  61 21:58:40   964.686748c  -7.08  -3.16   -0.0,+0.0,+0.0
# iter:  62 21:58:42   964.686944c  -5.97  -3.19   -0.0,+0.0,+0.0
# iter:  63 21:58:44   964.686957c  -6.92  -3.50   -0.0,+0.0,-0.0
# iter:  64 21:58:45   964.686969c  -7.71c -3.54   -0.0,+0.0,-0.0
# iter:  65 21:58:47   964.686982c  -7.86c -3.55   -0.0,+0.0,-0.0
# iter:  66 21:58:49   964.686953c  -8.23c -3.57   -0.0,+0.0,-0.0
# iter:  67 21:58:51   964.686969c  -8.48c -3.61   -0.0,+0.0,-0.0
# iter:  68 21:58:52   964.686980c  -9.18c -3.59   -0.0,+0.0,-0.0
# iter:  69 21:58:54   964.687005c  -8.71c -3.58   -0.0,+0.0,-0.0
# iter:  70 21:58:56   964.687090c  -7.05  -3.58   -0.0,+0.0,-0.0
# iter:  71 21:58:58   964.687124c  -7.81c -3.62   -0.0,+0.0,-0.0
# iter:  72 21:58:59   964.687122c  -7.05  -3.65   -0.0,+0.0,-0.0
# iter:  73 21:59:01   964.687114c  -7.78c -3.90   -0.0,+0.0,-0.0
# iter:  74 21:59:03   964.687109c  -7.94c -3.95   +0.0,+0.0,-0.0
# iter:  75 21:59:04   964.687107c  -9.16c -4.09c  +0.0,+0.0,-0.0
scf_steps: 75
energies:  # eV
  coulomb:        3378.198981
  zero:             -0.210894
  xc:              224.074707
  external:          0.000000
  kinetic:       -2637.330928
  spinorbit:         0.000000
  entropy:          -0.089520
  total:           964.642347
  extrapolated:    964.687107

dipole moment: [-9.240634, -15.865162, 0.092968]  # |e|*Ang

total magnetic moment: [0.000018, 0.000003, -0.000000]

local magnetic moments: [
  [ 0.000017,  0.000001,  0.000000],  # Ni 0
  [-0.000001, -0.000002,  0.000000],  # I  1
  [ 0.000002, -0.000002,  0.000000]]  # I  2


Fermi level: -0.562 eV

kpt = [-0.455, -0.455, 0.000], weight = 0.008:
  Band      eig [eV]   occ [0-1]
     0      -156.292       1.000
   ...
    21        -5.565       1.000
    22        -5.355       1.000
    23        -5.155       1.000
    24        -3.525       1.000
    25        -3.417       1.000
    26        -1.822       1.000
    27        -1.587       1.000
    28        -0.598       0.590
    29        -0.397       0.161
    30        -0.025       0.005
    31         0.262       0.000
    32         0.697       0.000
    33         1.300       0.000
    34         1.700       0.000
    35         1.945       0.000
    36         3.510       0.000
   ...
    39         4.897       0.000

kpt = [-0.455, -0.364, 0.000], weight = 0.008:
  Band      eig [eV]   occ [0-1]
     0      -145.585       1.000
   ...
    22        -5.552       1.000
    23        -5.159       1.000
    24        -3.294       1.000
    25        -2.664       1.000
    26        -1.910       1.000
    27        -1.527       1.000
    28        -0.991       0.987
    29        -0.581       0.548
    30        -0.337       0.096
    31         0.297       0.000
    32         1.126       0.000
    33         1.593       0.000
    34         1.899       0.000
    35         2.106       0.000
    36         3.762       0.000
    37         3.791       0.000
   ...
    39         5.557       0.000

kpt = [-0.455, -0.273, 0.000], weight = 0.008:
  Band      eig [eV]   occ [0-1]
     0      -145.730       1.000
   ...
    23        -5.251       1.000
    24        -3.735       1.000
    25        -3.418       1.000
    26        -2.050       1.000
    27        -1.992       1.000
    28        -1.183       0.998
    29        -0.985       0.986
    30        -0.796       0.913
    31         0.979       0.000
    32         1.339       0.000
    33         1.359       0.000
    34         2.008       0.000
    35         2.093       0.000
    36         2.870       0.000
    37         3.045       0.000
    38         4.290       0.000
    39         4.901       0.000
(only showing first 3 out of 121 k-points)

No gap
# Writing to Conv_E/Conv_E_50.0/gsq-10.gpw (mode='')

