#  __  _  _
# | _ |_)|_||  |
# |__||  | ||/\| - 24.1.0

User:   s194113@n-62-29-30
Date:   Wed Apr 24 22:11:32 2024
Arch:   x86_64
Pid:    30750
CWD:    /zhome/87/8/147075/10302/10302_NM/NiI2
Python: 3.8.5
gpaw:   /zhome/87/8/147075/venv-name/gpaw/gpaw (10808453a8)
_gpaw:  /zhome/87/8/147075/venv-name/gpaw/
        _gpaw.cpython-38-x86_64-linux-gnu.so (10808453a8)
ase:    /zhome/87/8/147075/venv-name/ase/ase (version 3.23.0b1-c36115a2db)
numpy:  /zhome/87/8/147075/venv-name/lib/python3.8/site-packages/numpy (version 1.24.4)
scipy:  /zhome/87/8/147075/venv-name/lib/python3.8/site-packages/scipy (version 1.10.1)
libxc:  4.3.4
units:  Angstrom and eV
cores: 12
OpenMP: False
OMP_NUM_THREADS: 1

---
input parameters:
  kpts: 
    density: 6.0
    gamma: True
  magmoms: [[1.28782608, 0, 0], [0.19870794, 0, 0], [0.19870794, 0, 0]]
  mixer: 
    backend: 'pulay'
    beta: 0.05
    method: 'sum'
    nmaxold: 5
    weight: 100
  mode: 
    name: 'pw'
    ecut: 50.0
    qspiral: array([0.28571429, 0.28571429, 0.        ])
  parallel: 
    kpt: None
    domain: 1
    band: 1
    order: 'kdb'
    stridebands: False
    augment_grids: False
    sl_auto: False
    sl_default: None
    sl_diagonalize: None
    sl_inverse_cholesky: None
    sl_lcao: None
    sl_lrtddft: None
    use_elpa: False
    elpasolver: '2stage'
    buffer_size: None
    gpu: False
  symmetry: 
    point_group: False
    time_reversal: False
  xc: 
    name: 'LDA'

#                        
#                        
#                        
#                        
#                        
#              I         
#                        
#        Ni              
#          I             
#                        
#                        
#                        
#                        
#                        

atoms: [  # symbols, positions [Ang] and initial magnetic moments
  [ Ni, [   0.000000,    0.000000,    7.513573], [ 1.288,  0.000,  0.000]], # 0
  [  I, [   1.984831,    1.145943,    9.027147], [ 0.199,  0.000,  0.000]], # 1
  [  I, [   0.000000,    2.291885,    6.000000], [ 0.199,  0.000,  0.000]]] # 2

cell: [  # Ang
#     x            y            z
  [   3.969662,    0.000000,    0.000000],
  [  -1.984831,    3.437828,    0.000000],
  [   0.000000,    0.000000,   15.027147]]

periodic: [True      , True      , False     ]
lengths:  [  3.969662,   3.969662,  15.027147]  # Ang
angles:   [ 90.000000,  90.000000, 120.000000]

symmetry:
  number of symmetries: 1
  rotations: [
    [[ 1,  0,  0], [ 0,  1,  0], [ 0,  0,  1]]]

bz sampling:
  number of bz points: 121
  number of ibz points: 121
  monkhorst-pack size: [11, 11, 1]
  monkhorst-pack shift: [0, 0, 0]
  points and weights: [
    [[ -0.45454545,  -0.45454545,   0.00000000], 0.00826446],  # 0
    [[ -0.45454545,  -0.36363636,   0.00000000], 0.00826446],  # 1
    [[ -0.45454545,  -0.27272727,   0.00000000], 0.00826446],  # 2
    [[ -0.45454545,  -0.18181818,   0.00000000], 0.00826446],  # 3
    [[ -0.45454545,  -0.09090909,   0.00000000], 0.00826446],  # 4
    [[ -0.45454545,   0.00000000,   0.00000000], 0.00826446],  # 5
    [[ -0.45454545,   0.09090909,   0.00000000], 0.00826446],  # 6
    [[ -0.45454545,   0.18181818,   0.00000000], 0.00826446],  # 7
    [[ -0.45454545,   0.27272727,   0.00000000], 0.00826446],  # 8
    [[ -0.45454545,   0.36363636,   0.00000000], 0.00826446],  # 9
    # ...
    [[  0.45454545,   0.45454545,   0.00000000], 0.00826446]]  # 120

plane wave coefficients: 172
cutoff: 50.0 eV

spin-components: 4  # (non-collinear spins)
bands: 40
valence electrons: 30.0
spin-degeneracy: 1
dtype: complex128

memory:
    wave functions: 25_710_080  # bytes  (2_142_506 per core)

parallelization:
    kpt:    12
    domain: 1
    band:   1

density:
  components: 4
  grid points: [ 7  7 25]
  charge: 0.0  # |e|

potential:
  grid points: [ 7  7 25]

species:
  Ni:
    name: Nickel
    id: 1802175e8de9ea26d9f4394ec1a7d564
    Z: 28.0
    valence: 16
    core: 12
    charge: 0.0
    file: /zhome/86/d/1666/PAW/gpaw-setups-0.9.20000/Ni.LDA.gz
    compensation charges: {type: gauss,
                           rc: 0.36,
                           lmax: 2}
    cutoffs: {filter: 2.14,
              core: 1.98}
    valence states:
      #              energy  rcut
      - 4s(2.00)    -5.858   1.164
      - 3p(6.00)   -71.266   1.207
      - 4p(0.00)    -1.338   1.207
      - 3d(8.00)    -9.141   1.138
      -  s          21.353   1.164
      -  d          18.071   1.138
  
    # Using partial waves for Ni as LCAO basis

  I:
    name: Iodine
    id: b559721c0c096a7b4c8fc0e0f4de5cf4
    Z: 53.0
    valence: 7
    core: 46
    charge: 0.0
    file: /zhome/86/d/1666/PAW/gpaw-setups-0.9.20000/I.LDA.gz
    compensation charges: {type: gauss,
                           rc: 0.37,
                           lmax: 2}
    cutoffs: {filter: 2.06,
              core: 2.90}
    valence states:
      #              energy  rcut
      - 5s(2.00)   -17.626   1.164
      - 5p(5.00)    -7.241   1.164
      -  s           9.585   1.164
      -  p          19.970   1.164
      -  d           0.000   1.164
  
    # Using partial waves for I as LCAO basis

Reference energy: -428067.566327  # eV

eigensolver:
  name: 'Davidson'
  niter: 2
  converge_bands: 'occupied'
Density mixing:
  Method: sum
  Backend: pulay
  Linear mixing parameter: 0.05
  old densities: 5
  Damping of long wavelength oscillations: 100
occupation numbers:
  Fermi-Dirac:
    width: 0.1000  # eV
  

poisson solver:
  ecut: 400.0  # eV

xc functional:
  name: None

convergence criteria:
- Maximum [total energy] change in last 3 cyles: 0.0005 eV / valence electron
- Maximum integral of absolute [dens]ity change: 0.0001 electrons / valence electron
- Maximum integral of absolute [eigenst]ate change: 4e-08 eV^2 / valence electron
maximum number of iterations: 333

#      iter     time        total  log10-change:
#                          energy   eigst   dens
# iter:   1 22:11:35   270.027089                  +1.7,+0.0,+0.0
# iter:   2 22:11:37   354.211332   -0.83  -0.51   +1.1,-0.0,-0.0
# iter:   3 22:11:38   361.561778   -1.55  -0.53   +1.0,-0.0,-0.0
# iter:   4 22:11:40   290.973911   -1.73  -0.52   +1.0,-0.0,-0.0
# iter:   5 22:11:42   291.614296   -2.65  -0.52   +1.0,-0.0,+0.0
# iter:   6 22:11:44   328.926158   -2.10  -0.52   +1.0,-0.0,+0.0
# iter:   7 22:11:45   376.053463   -0.78  -0.53   +0.9,-0.0,+0.0
# iter:   8 22:11:47   656.422549   +0.52  -0.41   +0.7,-0.0,+0.0
# iter:   9 22:11:49   659.409125   -0.62  -0.36   +0.7,-0.0,-0.0
# iter:  10 22:11:51   571.953471   -0.50  -0.44   +0.8,-0.0,-0.0
# iter:  11 22:11:52   387.905168   +0.89  -0.58   +0.8,+0.0,-0.0
# iter:  12 22:11:54   624.612019   +1.06  -0.33   +0.7,-0.0,+0.0
# iter:  13 22:11:56   623.351930   +0.29  -0.42   +0.7,-0.0,+0.0
# iter:  14 22:11:58   634.184035   -0.37  -0.38   +0.7,-0.0,+0.0
# iter:  15 22:12:00   620.089205   -0.34  -0.47   +0.6,-0.0,+0.0
# iter:  16 22:12:01   622.651174   -1.02  -0.36   +0.6,-0.0,+0.0
# iter:  17 22:12:03   209.256954   +1.41  -0.36   +0.7,+0.0,-0.0
# iter:  18 22:12:05   598.217431   +0.84  -0.00   +0.6,-0.0,-0.0
# iter:  19 22:12:07   676.149145   +0.61  -0.48   +0.6,-0.0,+0.0
# iter:  20 22:12:08   682.616473   -0.29  -0.58   +0.6,-0.0,+0.0
# iter:  21 22:12:10   697.116947   -0.84  -0.58   +0.6,-0.0,+0.0
# iter:  22 22:12:12   696.241018   -1.60  -0.57   +0.6,-0.0,+0.0
# iter:  23 22:12:14   684.771050   -1.86  -0.59   +0.6,-0.0,+0.0
# iter:  24 22:12:15   664.108804   +0.66  -0.56   +0.6,+0.0,+0.0
# iter:  25 22:12:17   722.101581   +0.20  -0.45   +0.6,-0.0,+0.0
# iter:  26 22:12:19   743.592748   -0.10  -0.50   +0.5,-0.0,-0.0
# iter:  27 22:12:21   758.877405   -0.46  -0.43   +0.5,-0.0,-0.0
# iter:  28 22:12:22   796.277513   -1.17  -0.42   +0.5,-0.0,-0.0
# iter:  29 22:12:24   784.881054   -1.53  -0.52   +0.5,-0.0,-0.0
# iter:  30 22:12:26   731.047462   +0.49  -0.49   +0.4,+0.0,+0.0
# iter:  31 22:12:28   809.504184   -0.34  -0.38   +0.4,-0.0,-0.0
# iter:  32 22:12:30   839.486125   -0.85  -0.62   +0.4,+0.0,+0.0
# iter:  33 22:12:31   862.864798   -1.70  -0.61   +0.3,+0.0,+0.0
# iter:  34 22:12:33   943.599889   -0.43  -0.64   +0.1,+0.0,+0.0
# iter:  35 22:12:35   935.642297   -1.77  -0.77   +0.2,+0.0,+0.0
# iter:  36 22:12:37   904.183604   -0.59  -0.78   +0.2,+0.0,+0.0
# iter:  37 22:12:38   934.670730   -0.40  -0.61   +0.1,+0.0,+0.0
# iter:  38 22:12:40   963.272093   -0.60  -0.76   -0.0,+0.0,+0.0
# iter:  39 22:12:42   959.648219   -1.50  -0.87   -0.1,+0.0,+0.0
# iter:  40 22:12:44   965.325014   -1.32  -0.93   -0.1,+0.0,-0.0
# iter:  41 22:12:45   961.674256   -1.58  -0.90   -0.1,+0.0,+0.0
# iter:  42 22:12:47   965.583154   -1.69  -1.05   -0.0,+0.0,+0.0
# iter:  43 22:12:49   964.211396   -2.39  -1.09   -0.1,+0.0,+0.0
# iter:  44 22:12:51   963.964552   -2.97  -1.21   -0.1,+0.0,+0.0
# iter:  45 22:12:52   964.773648   -3.11  -1.26   -0.1,+0.0,+0.0
# iter:  46 22:12:54   965.226827   -2.68  -1.29   -0.0,+0.0,+0.0
# iter:  47 22:12:56   965.960484   -2.55  -1.33   -0.0,+0.0,+0.0
# iter:  48 22:12:58   966.079485   -3.51  -1.44   -0.0,+0.0,-0.0
# iter:  49 22:12:59   965.856375   -3.26  -1.49   +0.0,+0.0,-0.0
# iter:  50 22:13:01   965.956348   -2.95  -1.77   +0.0,-0.0,+0.0
# iter:  51 22:13:03   965.958369   -4.52  -2.20   +0.0,-0.0,+0.0
# iter:  52 22:13:05   965.961032c  -4.82  -2.22   -0.0,-0.0,+0.0
# iter:  53 22:13:06   965.956616c  -4.66  -2.27   -0.0,-0.0,+0.0
# iter:  54 22:13:08   965.957808c  -4.77  -2.32   -0.0,-0.0,-0.0
# iter:  55 22:13:10   965.960883c  -5.51  -2.45   -0.0,-0.0,-0.0
# iter:  56 22:13:12   965.962564c  -4.34  -2.46   -0.0,+0.0,-0.0
# iter:  57 22:13:13   965.962004c  -5.84  -2.97   -0.0,+0.0,-0.0
# iter:  58 22:13:15   965.961917c  -6.81  -2.99   -0.0,+0.0,+0.0
# iter:  59 22:13:17   965.962244c  -6.82  -3.05   -0.0,-0.0,+0.0
# iter:  60 22:13:19   965.962814c  -6.01  -3.14   -0.0,-0.0,+0.0
# iter:  61 22:13:20   965.962843c  -7.20  -3.23   -0.0,-0.0,+0.0
# iter:  62 22:13:22   965.962855c  -7.47c -3.26   -0.0,-0.0,+0.0
# iter:  63 22:13:24   965.962863c  -6.56  -3.31   -0.0,-0.0,+0.0
# iter:  64 22:13:26   965.962858c  -8.27c -3.45   -0.0,-0.0,+0.0
# iter:  65 22:13:27   965.962922c  -7.16  -3.46   +0.0,-0.0,+0.0
# iter:  66 22:13:29   965.962966c  -6.71  -3.52   +0.0,-0.0,+0.0
# iter:  67 22:13:31   965.962977c  -7.57c -3.57   -0.0,-0.0,+0.0
# iter:  68 22:13:32   965.962963c  -7.67c -3.61   -0.0,-0.0,+0.0
# iter:  69 22:13:34   965.962937c  -7.70c -3.66   -0.0,-0.0,+0.0
# iter:  70 22:13:36   965.962936c  -7.86c -3.80   -0.0,-0.0,+0.0
# iter:  71 22:13:38   965.962947c  -7.42c -3.94   -0.0,-0.0,+0.0
# iter:  72 22:13:40   965.962946c  -8.20c -4.06c  -0.0,-0.0,-0.0
scf_steps: 72
energies:  # eV
  coulomb:        3381.874801
  zero:             -0.218377
  xc:              224.242943
  external:          0.000000
  kinetic:       -2639.891886
  spinorbit:         0.000000
  entropy:          -0.089069
  total:           965.918412
  extrapolated:    965.962946

dipole moment: [-9.190614, -15.918610, 0.093787]  # |e|*Ang

total magnetic moment: [-0.000037, -0.000004, -0.000000]

local magnetic moments: [
  [-0.000141, -0.000000,  0.000000],  # Ni 0
  [-0.000001,  0.000025,  0.000000],  # I  1
  [-0.000001,  0.000025, -0.000000]]  # I  2


Fermi level: -0.562 eV

kpt = [-0.455, -0.455, 0.000], weight = 0.008:
  Band      eig [eV]   occ [0-1]
     0      -158.905       1.000
   ...
    20        -5.913       1.000
    21        -5.480       1.000
    22        -5.272       1.000
    23        -5.224       1.000
    24        -3.344       1.000
    25        -3.225       1.000
    26        -2.925       1.000
    27        -1.183       0.998
    28        -0.469       0.283
    29        -0.279       0.055
    30        -0.115       0.011
    31         0.125       0.001
    32         0.886       0.000
    33         0.967       0.000
    34         2.136       0.000
    35         2.759       0.000
   ...
    39         5.132       0.000

kpt = [-0.455, -0.364, 0.000], weight = 0.008:
  Band      eig [eV]   occ [0-1]
     0      -147.602       1.000
   ...
    21        -5.469       1.000
    22        -5.467       1.000
    23        -5.143       1.000
    24        -3.528       1.000
    25        -2.261       1.000
    26        -2.114       1.000
    27        -1.032       0.991
    28        -0.755       0.873
    29        -0.199       0.026
    30         0.248       0.000
    31         0.747       0.000
    32         1.104       0.000
    33         1.313       0.000
    34         1.899       0.000
    35         2.440       0.000
    36         3.147       0.000
   ...
    39         5.601       0.000

kpt = [-0.455, -0.273, 0.000], weight = 0.008:
  Band      eig [eV]   occ [0-1]
     0      -145.105       1.000
   ...
    22        -5.599       1.000
    23        -5.437       1.000
    24        -2.993       1.000
    25        -1.895       1.000
    26        -1.823       1.000
    27        -1.513       1.000
    28        -1.165       0.998
    29        -0.872       0.957
    30        -0.397       0.161
    31         0.524       0.000
    32         1.336       0.000
    33         1.476       0.000
    34         2.067       0.000
    35         2.261       0.000
    36         3.030       0.000
    37         4.351       0.000
   ...
    39         4.907       0.000
(only showing first 3 out of 121 k-points)

No gap
# Writing to Conv_E/Conv_E_50.0/gsq-18.gpw (mode='')

---

timing:  # [seconds]
  Total: 275.801  # ━━━━━━━━━━━━━━━━━━━━━━━━━━━━━━━━━━━━━━━━━━━━━━━━━━━━━━━━━
  Init:    0.883  # 
  SCF:   127.057  # ━━━━━━━━━━━━━━━━━━━━━━━━━━╸

Max RSS: 665.789  # MiB
