#  __  _  _
# | _ |_)|_||  |
# |__||  | ||/\| - 24.1.0

User:   s194113@n-62-29-30
Date:   Wed Apr 24 21:54:21 2024
Arch:   x86_64
Pid:    30750
CWD:    /zhome/87/8/147075/10302/10302_NM/NiI2
Python: 3.8.5
gpaw:   /zhome/87/8/147075/venv-name/gpaw/gpaw (10808453a8)
_gpaw:  /zhome/87/8/147075/venv-name/gpaw/
        _gpaw.cpython-38-x86_64-linux-gnu.so (10808453a8)
ase:    /zhome/87/8/147075/venv-name/ase/ase (version 3.23.0b1-c36115a2db)
numpy:  /zhome/87/8/147075/venv-name/lib/python3.8/site-packages/numpy (version 1.24.4)
scipy:  /zhome/87/8/147075/venv-name/lib/python3.8/site-packages/scipy (version 1.10.1)
libxc:  4.3.4
units:  Angstrom and eV
cores: 12
OpenMP: False
OMP_NUM_THREADS: 1

---
input parameters:
  kpts: 
    density: 6.0
    gamma: True
  magmoms: [[1.28782608, 0, 0], [0.19870794, 0, 0], [0.19870794, 0, 0]]
  mixer: 
    backend: 'pulay'
    beta: 0.05
    method: 'sum'
    nmaxold: 5
    weight: 100
  mode: 
    name: 'pw'
    ecut: 50.0
    qspiral: array([0.4, 0. , 0. ])
  parallel: 
    kpt: None
    domain: 1
    band: 1
    order: 'kdb'
    stridebands: False
    augment_grids: False
    sl_auto: False
    sl_default: None
    sl_diagonalize: None
    sl_inverse_cholesky: None
    sl_lcao: None
    sl_lrtddft: None
    use_elpa: False
    elpasolver: '2stage'
    buffer_size: None
    gpu: False
  symmetry: 
    point_group: False
    time_reversal: False
  xc: 
    name: 'LDA'

#                        
#                        
#                        
#                        
#                        
#              I         
#                        
#        Ni              
#          I             
#                        
#                        
#                        
#                        
#                        

atoms: [  # symbols, positions [Ang] and initial magnetic moments
  [ Ni, [   0.000000,    0.000000,    7.513573], [ 1.288,  0.000,  0.000]], # 0
  [  I, [   1.984831,    1.145943,    9.027147], [ 0.199,  0.000,  0.000]], # 1
  [  I, [   0.000000,    2.291885,    6.000000], [ 0.199,  0.000,  0.000]]] # 2

cell: [  # Ang
#     x            y            z
  [   3.969662,    0.000000,    0.000000],
  [  -1.984831,    3.437828,    0.000000],
  [   0.000000,    0.000000,   15.027147]]

periodic: [True      , True      , False     ]
lengths:  [  3.969662,   3.969662,  15.027147]  # Ang
angles:   [ 90.000000,  90.000000, 120.000000]

symmetry:
  number of symmetries: 1
  rotations: [
    [[ 1,  0,  0], [ 0,  1,  0], [ 0,  0,  1]]]

bz sampling:
  number of bz points: 121
  number of ibz points: 121
  monkhorst-pack size: [11, 11, 1]
  monkhorst-pack shift: [0, 0, 0]
  points and weights: [
    [[ -0.45454545,  -0.45454545,   0.00000000], 0.00826446],  # 0
    [[ -0.45454545,  -0.36363636,   0.00000000], 0.00826446],  # 1
    [[ -0.45454545,  -0.27272727,   0.00000000], 0.00826446],  # 2
    [[ -0.45454545,  -0.18181818,   0.00000000], 0.00826446],  # 3
    [[ -0.45454545,  -0.09090909,   0.00000000], 0.00826446],  # 4
    [[ -0.45454545,   0.00000000,   0.00000000], 0.00826446],  # 5
    [[ -0.45454545,   0.09090909,   0.00000000], 0.00826446],  # 6
    [[ -0.45454545,   0.18181818,   0.00000000], 0.00826446],  # 7
    [[ -0.45454545,   0.27272727,   0.00000000], 0.00826446],  # 8
    [[ -0.45454545,   0.36363636,   0.00000000], 0.00826446],  # 9
    # ...
    [[  0.45454545,   0.45454545,   0.00000000], 0.00826446]]  # 120

plane wave coefficients: 172
cutoff: 50.0 eV

spin-components: 4  # (non-collinear spins)
bands: 40
valence electrons: 30.0
spin-degeneracy: 1
dtype: complex128

memory:
    wave functions: 25_710_080  # bytes  (2_142_506 per core)

parallelization:
    kpt:    12
    domain: 1
    band:   1

density:
  components: 4
  grid points: [ 7  7 25]
  charge: 0.0  # |e|

potential:
  grid points: [ 7  7 25]

species:
  Ni:
    name: Nickel
    id: 1802175e8de9ea26d9f4394ec1a7d564
    Z: 28.0
    valence: 16
    core: 12
    charge: 0.0
    file: /zhome/86/d/1666/PAW/gpaw-setups-0.9.20000/Ni.LDA.gz
    compensation charges: {type: gauss,
                           rc: 0.36,
                           lmax: 2}
    cutoffs: {filter: 2.14,
              core: 1.98}
    valence states:
      #              energy  rcut
      - 4s(2.00)    -5.858   1.164
      - 3p(6.00)   -71.266   1.207
      - 4p(0.00)    -1.338   1.207
      - 3d(8.00)    -9.141   1.138
      -  s          21.353   1.164
      -  d          18.071   1.138
  
    # Using partial waves for Ni as LCAO basis

  I:
    name: Iodine
    id: b559721c0c096a7b4c8fc0e0f4de5cf4
    Z: 53.0
    valence: 7
    core: 46
    charge: 0.0
    file: /zhome/86/d/1666/PAW/gpaw-setups-0.9.20000/I.LDA.gz
    compensation charges: {type: gauss,
                           rc: 0.37,
                           lmax: 2}
    cutoffs: {filter: 2.06,
              core: 2.90}
    valence states:
      #              energy  rcut
      - 5s(2.00)   -17.626   1.164
      - 5p(5.00)    -7.241   1.164
      -  s           9.585   1.164
      -  p          19.970   1.164
      -  d           0.000   1.164
  
    # Using partial waves for I as LCAO basis

Reference energy: -428067.566327  # eV

eigensolver:
  name: 'Davidson'
  niter: 2
  converge_bands: 'occupied'
Density mixing:
  Method: sum
  Backend: pulay
  Linear mixing parameter: 0.05
  old densities: 5
  Damping of long wavelength oscillations: 100
occupation numbers:
  Fermi-Dirac:
    width: 0.1000  # eV
  

poisson solver:
  ecut: 400.0  # eV

xc functional:
  name: None

convergence criteria:
- Maximum [total energy] change in last 3 cyles: 0.0005 eV / valence electron
- Maximum integral of absolute [dens]ity change: 0.0001 electrons / valence electron
- Maximum integral of absolute [eigenst]ate change: 4e-08 eV^2 / valence electron
maximum number of iterations: 333

#      iter     time        total  log10-change:
#                          energy   eigst   dens
# iter:   1 21:54:24   275.135037                  +1.7,+0.0,+0.0
# iter:   2 21:54:26   361.415164   -0.89  -0.51   +1.1,-0.0,-0.0
# iter:   3 21:54:27   376.685600   -1.67  -0.52   +1.0,-0.0,-0.0
# iter:   4 21:54:29   261.107890   -1.10  -0.52   +1.0,-0.0,-0.0
# iter:   5 21:54:31   479.011600   -0.47  -0.51   +0.9,-0.0,-0.0
# iter:   6 21:54:33   685.896817   -0.06  -0.52   +0.7,-0.0,-0.0
# iter:   7 21:54:35   855.867466   +0.30  -0.48   +0.4,-0.0,-0.0
# iter:   8 21:54:36   906.036905   +0.13  -0.48   +0.2,-0.0,-0.0
# iter:   9 21:54:38   920.795114   -0.98  -0.53   +0.2,-0.0,-0.0
# iter:  10 21:54:40   984.271214   -0.58  -0.58   +0.1,-0.0,+0.0
# iter:  11 21:54:42   984.292572   -1.40  -0.96   +0.0,-0.0,-0.0
# iter:  12 21:54:43   985.139499   -2.17  -0.92   -0.0,-0.0,-0.0
# iter:  13 21:54:45   983.567477   -2.46  -0.96   -0.0,-0.0,-0.0
# iter:  14 21:54:47   987.690693   -1.80  -0.96   -0.0,+0.0,-0.0
# iter:  15 21:54:49   987.080323   -2.51  -1.43   -0.0,-0.0,+0.0
# iter:  16 21:54:50   987.389496   -3.74  -1.47   -0.0,-0.0,+0.0
# iter:  17 21:54:52   987.635279   -3.54  -1.52   +0.0,-0.0,+0.0
# iter:  18 21:54:54   987.615166   -4.90  -1.61   +0.0,-0.0,+0.0
# iter:  19 21:54:56   987.546846   -3.84  -1.63   -0.0,-0.0,+0.0
# iter:  20 21:54:57   987.543851   -5.61  -1.68   -0.0,-0.0,+0.0
# iter:  21 21:54:59   987.720279   -3.56  -1.68   -0.0,-0.0,-0.0
# iter:  22 21:55:01   987.913164   -3.64  -1.74   -0.0,-0.0,+0.0
# iter:  23 21:55:03   987.910117   -4.79  -1.78   -0.0,-0.0,+0.0
# iter:  24 21:55:04   987.906721c  -5.59  -1.80   -0.0,-0.0,-0.0
# iter:  25 21:55:06   987.995280   -3.55  -1.82   -0.0,-0.0,-0.0
# iter:  26 21:55:08   988.005964   -4.57  -2.09   -0.0,-0.0,-0.0
# iter:  27 21:55:09   988.008121c  -5.55  -2.33   -0.0,-0.0,+0.0
# iter:  28 21:55:11   988.015629c  -4.24  -2.36   -0.0,+0.0,-0.0
# iter:  29 21:55:13   988.016827c  -5.13  -2.64   +0.0,+0.0,+0.0
# iter:  30 21:55:15   988.017464c  -5.82  -3.03   +0.0,+0.0,+0.0
# iter:  31 21:55:16   988.017816c  -6.38  -3.34   +0.0,+0.0,-0.0
# iter:  32 21:55:18   988.018190c  -6.27  -3.46   +0.0,-0.0,+0.0
# iter:  33 21:55:20   988.018392c  -6.42  -3.52   +0.0,-0.0,+0.0
# iter:  34 21:55:22   988.018396c  -7.55c -3.78   +0.0,+0.0,+0.0
# iter:  35 21:55:23   988.018390c  -7.86c -3.86   +0.0,+0.0,+0.0
# iter:  36 21:55:25   988.018401c  -8.59c -3.88   +0.0,+0.0,-0.0
# iter:  37 21:55:27   988.018417c  -8.13c -3.89   +0.0,+0.0,+0.0
# iter:  38 21:55:29   988.018426c  -8.03c -3.94   +0.0,+0.0,+0.0
# iter:  39 21:55:30   988.018428c  -8.71c -4.22c  +0.0,+0.0,-0.0
scf_steps: 39
energies:  # eV
  coulomb:        3445.275035
  zero:             -0.333935
  xc:              226.913975
  external:          0.000000
  kinetic:       -2683.791963
  spinorbit:         0.000000
  entropy:          -0.089368
  total:           987.973744
  extrapolated:    988.018428

dipole moment: [-9.302293, -16.033349, 0.098258]  # |e|*Ang

total magnetic moment: [0.000030, 0.000002, -0.000000]

local magnetic moments: [
  [ 0.000062,  0.000000, -0.000000],  # Ni 0
  [ 0.000003, -0.000007,  0.000000],  # I  1
  [ 0.000009, -0.000004,  0.000000]]  # I  2


Fermi level: -0.573 eV

kpt = [-0.455, -0.455, 0.000], weight = 0.008:
  Band      eig [eV]   occ [0-1]
     0      -151.136       1.000
   ...
    21        -5.543       1.000
    22        -5.431       1.000
    23        -5.218       1.000
    24        -3.914       1.000
    25        -2.635       1.000
    26        -1.961       1.000
    27        -1.630       1.000
    28        -0.892       0.960
    29        -0.178       0.019
    30        -0.079       0.007
    31         0.255       0.000
    32         0.769       0.000
    33         1.173       0.000
    34         1.853       0.000
    35         2.000       0.000
    36         3.232       0.000
   ...
    39         4.326       0.000

kpt = [-0.455, -0.364, 0.000], weight = 0.008:
  Band      eig [eV]   occ [0-1]
     0      -139.202       1.000
   ...
    22        -5.722       1.000
    23        -5.218       1.000
    24        -3.423       1.000
    25        -2.130       1.000
    26        -1.880       1.000
    27        -1.519       1.000
    28        -1.346       1.000
    29        -0.726       0.823
    30        -0.231       0.032
    31         0.147       0.001
    32         1.269       0.000
    33         1.524       0.000
    34         2.059       0.000
    35         2.201       0.000
    36         3.483       0.000
    37         3.883       0.000
   ...
    39         5.106       0.000

kpt = [-0.455, -0.273, 0.000], weight = 0.008:
  Band      eig [eV]   occ [0-1]
     0      -139.417       1.000
   ...
    22        -5.321       1.000
    23        -5.290       1.000
    24        -3.871       1.000
    25        -3.146       1.000
    26        -2.487       1.000
    27        -2.026       1.000
    28        -0.995       0.986
    29        -0.646       0.674
    30        -0.515       0.360
    31         0.765       0.000
    32         1.194       0.000
    33         1.551       0.000
    34         1.959       0.000
    35         2.312       0.000
    36         2.689       0.000
    37         2.985       0.000
   ...
    39         4.826       0.000
(only showing first 3 out of 121 k-points)

No gap
# Writing to Conv_E/Conv_E_50.0/gsq-08.gpw (mode='')

---

timing:  # [seconds]
  Total: 69.323  # ━━━━━━━━━━━━━━━━━━━━━━━━━━━━━━━━━━━━━━━━━━━━━━━━━━━━━━━━━━
  Init:   0.894  # ╸
  SCF:   68.056  # ━━━━━━━━━━━━━━━━━━━━━━━━━━━━━━━━━━━━━━━━━━━━━━━━━━━━━━━━━

Max RSS: 348.172  # MiB
