#  __  _  _
# | _ |_)|_||  |
# |__||  | ||/\| - 24.1.0

User:   s194113@n-62-28-19
Date:   Mon Apr 22 19:31:48 2024
Arch:   x86_64
Pid:    27945
CWD:    /zhome/87/8/147075/10302/10302_NM/MnI2/E_con
Python: 3.8.5
gpaw:   /zhome/87/8/147075/venv-name/gpaw/gpaw (10808453a8)
_gpaw:  /zhome/87/8/147075/venv-name/gpaw/
        _gpaw.cpython-38-x86_64-linux-gnu.so (10808453a8)
ase:    /zhome/87/8/147075/venv-name/ase/ase (version 3.23.0b1-c36115a2db)
numpy:  /zhome/87/8/147075/venv-name/lib/python3.8/site-packages/numpy (version 1.24.4)
scipy:  /zhome/87/8/147075/venv-name/lib/python3.8/site-packages/scipy (version 1.10.1)
libxc:  4.3.4
units:  Angstrom and eV
cores: 12
OpenMP: False
OMP_NUM_THREADS: 1

---
input parameters:
  kpts: 
    density: 6.0
    gamma: True
  magmoms: [[1, 0, 0], [0, 0, 0], [0, 0, 0]]
  mixer: 
    backend: 'pulay'
    beta: 0.05
    method: 'sum'
    nmaxold: 5
    weight: 100
  mode: 
    name: 'pw'
    ecut: 1000
    qspiral: array([0.44444444, 0.11111111, 0.        ])
  parallel: 
    kpt: None
    domain: 1
    band: 1
    order: 'kdb'
    stridebands: False
    augment_grids: False
    sl_auto: False
    sl_default: None
    sl_diagonalize: None
    sl_inverse_cholesky: None
    sl_lcao: None
    sl_lrtddft: None
    use_elpa: False
    elpasolver: '2stage'
    buffer_size: None
    gpu: False
  symmetry: 
    point_group: False
    time_reversal: False
  xc: 
    name: 'LDA'

#                        
#                        
#                        
#                        
#                        
#              I         
#                        
#        Mn              
#          I             
#                        
#                        
#                        
#                        
#                        

atoms: [  # symbols, positions [Ang] and initial magnetic moments
  [ Mn, [   0.000000,    0.000000,    7.513573], [ 1.000,  0.000,  0.000]], # 0
  [  I, [   2.083000,    1.202621,    9.027147], [ 0.000,  0.000,  0.000]], # 1
  [  I, [   0.000000,    2.405241,    6.000000], [ 0.000,  0.000,  0.000]]] # 2

cell: [  # Ang
#     x            y            z
  [   4.166000,    0.000000,    0.000000],
  [  -2.083000,    3.607862,    0.000000],
  [   0.000000,   -0.000000,   15.027147]]

periodic: [True      , True      , False     ]
lengths:  [  4.166000,   4.166000,  15.027147]  # Ang
angles:   [ 90.000000,  90.000000, 120.000000]

symmetry:
  number of symmetries: 1
  rotations: [
    [[ 1,  0,  0], [ 0,  1,  0], [ 0,  0,  1]]]

bz sampling:
  number of bz points: 121
  number of ibz points: 121
  monkhorst-pack size: [11, 11, 1]
  monkhorst-pack shift: [0, 0, 0]
  points and weights: [
    [[ -0.45454545,  -0.45454545,   0.00000000], 0.00826446],  # 0
    [[ -0.45454545,  -0.36363636,   0.00000000], 0.00826446],  # 1
    [[ -0.45454545,  -0.27272727,   0.00000000], 0.00826446],  # 2
    [[ -0.45454545,  -0.18181818,   0.00000000], 0.00826446],  # 3
    [[ -0.45454545,  -0.09090909,   0.00000000], 0.00826446],  # 4
    [[ -0.45454545,   0.00000000,   0.00000000], 0.00826446],  # 5
    [[ -0.45454545,   0.09090909,   0.00000000], 0.00826446],  # 6
    [[ -0.45454545,   0.18181818,   0.00000000], 0.00826446],  # 7
    [[ -0.45454545,   0.27272727,   0.00000000], 0.00826446],  # 8
    [[ -0.45454545,   0.36363636,   0.00000000], 0.00826446],  # 9
    # ...
    [[  0.45454545,   0.45454545,   0.00000000], 0.00826446]]  # 120

plane wave coefficients: 16265
cutoff: 1000.0 eV

spin-components: 4  # (non-collinear spins)
bands: 42
valence electrons: 29.0
spin-degeneracy: 1
dtype: complex128

memory:
    wave functions: 2_636_460_288  # bytes  (219_705_024 per core)

parallelization:
    kpt:    12
    domain: 1
    band:   1

density:
  components: 4
  grid points: [ 32  32 112]
  charge: 0.0  # |e|

potential:
  grid points: [ 32  32 112]

species:
  Mn:
    name: Manganese
    id: 0d715a8018be061a6e9ea6f2d364ac92
    Z: 25.0
    valence: 15
    core: 10
    charge: 0.0
    file: /zhome/86/d/1666/PAW/gpaw-setups-0.9.20000/Mn.LDA.gz
    compensation charges: {type: gauss,
                           rc: 0.38,
                           lmax: 2}
    cutoffs: {filter: 2.14,
              core: 0.86}
    valence states:
      #              energy  rcut
      - 3s(2.00)   -85.387   1.275
      - 4s(2.00)    -5.282   1.275
      - 3p(6.00)   -54.493   1.281
      - 4p(0.00)    -1.471   1.281
      - 3d(5.00)    -7.009   1.138
      -  d          20.203   1.138
  
    # Using partial waves for Mn as LCAO basis

  I:
    name: Iodine
    id: b559721c0c096a7b4c8fc0e0f4de5cf4
    Z: 53.0
    valence: 7
    core: 46
    charge: 0.0
    file: /zhome/86/d/1666/PAW/gpaw-setups-0.9.20000/I.LDA.gz
    compensation charges: {type: gauss,
                           rc: 0.37,
                           lmax: 2}
    cutoffs: {filter: 2.06,
              core: 2.90}
    valence states:
      #              energy  rcut
      - 5s(2.00)   -17.626   1.164
      - 5p(5.00)    -7.241   1.164
      -  s           9.585   1.164
      -  p          19.970   1.164
      -  d           0.000   1.164
  
    # Using partial waves for I as LCAO basis

Reference energy: -418222.442431  # eV

eigensolver:
  name: 'Davidson'
  niter: 2
  converge_bands: 'occupied'
Density mixing:
  Method: sum
  Backend: pulay
  Linear mixing parameter: 0.05
  old densities: 5
  Damping of long wavelength oscillations: 100
occupation numbers:
  Fermi-Dirac:
    width: 0.1000  # eV
  

poisson solver:
  ecut: 8000.0  # eV

xc functional:
  name: None

convergence criteria:
- Maximum [total energy] change in last 3 cyles: 0.0005 eV / valence electron
- Maximum integral of absolute [dens]ity change: 0.0001 electrons / valence electron
- Maximum integral of absolute [eigenst]ate change: 4e-08 eV^2 / valence electron
maximum number of iterations: 333

#      iter     time        total  log10-change:
#                          energy   eigst   dens
# iter:   1 19:32:49   -14.740245                  +1.0,+0.0,+0.0
# iter:   2 19:33:29   -13.804750   -0.11  -1.10   +0.9,-0.0,+0.0
# iter:   3 19:34:09   -13.652340   -0.70  -1.38   +1.1,-0.0,-0.0
# iter:   4 19:34:50   -13.859071   -0.95  -1.55   +1.4,-0.0,-0.0
# iter:   5 19:35:30   -13.938088   -1.50  -1.65   +1.7,-0.0,+0.0
# iter:   6 19:36:10   -14.161861   -1.70  -1.62   +1.9,-0.0,-0.0
# iter:   7 19:36:50   -14.232287   -2.02  -1.49   +2.1,-0.0,+0.0
# iter:   8 19:37:30   -13.673541   -1.23  -1.44   +1.9,-0.0,+0.0
# iter:   9 19:38:10   -13.631540   -1.67  -1.83   +1.5,-0.0,+0.0
# iter:  10 19:38:51   -12.944748   -1.49  -1.57   +0.3,-0.0,-0.0
# iter:  11 19:39:31   -13.681111   -1.63  -1.73   +1.1,-0.0,-0.0
# iter:  12 19:40:11   -14.178378   -2.56  -1.97   +1.9,-0.0,+0.0
# iter:  13 19:40:51   -13.736817   -2.52  -1.54   +1.8,-0.0,-0.0
# iter:  14 19:41:32   -13.795251   -3.28  -1.57   +1.8,-0.0,-0.0
# iter:  15 19:42:12   -15.152135   -1.35  -1.54   +3.5,+0.0,-0.0
# iter:  16 19:42:52   -14.927507   -2.82  -1.68   +3.3,+0.0,-0.0
# iter:  17 19:43:32   -14.842624   -1.94  -1.65   +3.3,+0.0,-0.0
# iter:  18 19:44:12   -14.233724   -2.15  -1.91   +2.5,+0.0,-0.0
# iter:  19 19:44:52   -14.498634   -2.46  -1.76   +2.7,+0.0,-0.0
# iter:  20 19:45:33   -15.217822   -1.19  -1.71   +4.4,+0.0,+0.0
# iter:  21 19:46:13   -15.164108   -1.50  -1.98   +3.6,+0.0,+0.0
# iter:  22 19:46:53   -15.190722   -2.72  -1.65   +3.8,+0.0,+0.0
# iter:  23 19:47:33   -15.165321   -1.99  -1.65   +4.7,+0.0,+0.0
# iter:  24 19:48:13   -15.172667   -3.01  -2.40   +4.6,+0.0,+0.0
# iter:  25 19:48:54   -15.168722c  -3.35  -2.52   +4.6,+0.0,+0.0
# iter:  26 19:49:34   -15.163418c  -3.67  -2.63   +4.6,+0.0,+0.0
# iter:  27 19:50:14   -15.163717c  -4.05  -2.67   +4.6,+0.0,+0.0
# iter:  28 19:50:54   -15.178732   -4.17  -2.70   +4.5,+0.0,+0.0
# iter:  29 19:51:34   -15.188514   -4.13  -2.78   +4.4,+0.0,+0.0
# iter:  30 19:52:14   -15.189550c  -4.55  -2.90   +4.4,+0.0,+0.0
# iter:  31 19:52:54   -15.189921c  -4.40  -2.97   +4.3,+0.0,+0.0
# iter:  32 19:53:34   -15.189896c  -4.66  -3.21   +4.3,+0.0,+0.0
# iter:  33 19:54:14   -15.189958c  -5.06  -3.28   +4.3,+0.0,+0.0
# iter:  34 19:54:54   -15.189831c  -4.97  -3.34   +4.3,+0.0,+0.0
# iter:  35 19:55:34   -15.189861c  -5.61  -3.51   +4.3,+0.0,+0.0
# iter:  36 19:56:14   -15.189876c  -5.23  -3.58   +4.3,+0.0,+0.0
# iter:  37 19:56:54   -15.189743c  -5.71  -3.66   +4.3,+0.0,+0.0
# iter:  38 19:57:34   -15.189744c  -6.21  -3.81   +4.3,+0.0,+0.0
# iter:  39 19:58:14   -15.189778c  -6.19  -3.84   +4.3,+0.0,+0.0
# iter:  40 19:58:54   -15.189821c  -6.33  -3.89   +4.3,+0.0,+0.0
# iter:  41 19:59:35   -15.189894c  -6.16  -3.94   +4.3,+0.0,+0.0
# iter:  42 20:00:15   -15.189891c  -6.62  -4.07c  +4.3,+0.0,+0.0
# iter:  43 20:00:55   -15.189908c  -6.06  -4.15c  +4.3,+0.0,+0.0
# iter:  44 20:01:35   -15.189912c  -6.78  -4.31c  +4.3,+0.0,+0.0
# iter:  45 20:02:15   -15.189906c  -6.68  -4.33c  +4.3,+0.0,+0.0
# iter:  46 20:02:55   -15.189906c  -7.19  -4.36c  +4.3,+0.0,+0.0
# iter:  47 20:03:35   -15.189908c  -7.29  -4.44c  +4.3,+0.0,+0.0
# iter:  48 20:04:15   -15.189909c  -7.35  -4.48c  +4.3,+0.0,+0.0
# iter:  49 20:04:55   -15.189909c  -6.90  -4.55c  +4.3,+0.0,+0.0
# iter:  50 20:05:35   -15.189906c  -7.50c -4.84c  +4.3,+0.0,+0.0
scf_steps: 50
energies:  # eV
  coulomb:         -17.356900
  zero:              0.089866
  xc:              -18.389583
  external:          0.000000
  kinetic:          20.467959
  spinorbit:         0.000000
  entropy:          -0.002495
  total:           -15.191153
  extrapolated:    -15.189906

dipole moment: [-4.778288, -8.832166, -9.126862]  # |e|*Ang

total magnetic moment: [4.293222, 0.001185, 0.000000]

local magnetic moments: [
  [ 4.255278,  0.000000,  0.000000],  # Mn 0
  [-0.020651, -0.000001,  0.000000],  # I  1
  [ 0.019406, -0.007064,  0.000000]]  # I  2


Fermi level: -1.042 eV

kpt = [-0.455, -0.455, 0.000], weight = 0.008:
  Band      eig [eV]   occ [0-1]
     0       -81.928       1.000
   ...
    21        -4.067       1.000
    22        -3.865       1.000
    23        -3.705       1.000
    24        -3.589       1.000
    25        -3.356       1.000
    26        -3.282       1.000
    27        -1.991       1.000
    28        -1.813       1.000
    29        -0.273       0.000
    30        -0.133       0.000
    31        -0.085       0.000
    32         0.613       0.000
    33         0.769       0.000
    34         2.231       0.000
    35         2.929       0.000
    36         4.069       0.000
   ...
    41         5.259       0.000

kpt = [-0.455, -0.364, 0.000], weight = 0.008:
  Band      eig [eV]   occ [0-1]
     0       -81.928       1.000
   ...
    21        -4.036       1.000
    22        -3.744       1.000
    23        -3.689       1.000
    24        -3.498       1.000
    25        -3.254       1.000
    26        -3.210       1.000
    27        -2.058       1.000
    28        -1.734       0.999
    29        -0.271       0.000
    30        -0.176       0.000
    31        -0.067       0.000
    32         0.598       0.000
    33         0.776       0.000
    34         2.062       0.000
    35         2.808       0.000
    36         3.619       0.000
   ...
    41         5.278       0.000

kpt = [-0.455, -0.273, 0.000], weight = 0.008:
  Band      eig [eV]   occ [0-1]
     0       -81.928       1.000
   ...
    21        -3.749       1.000
    22        -3.721       1.000
    23        -3.545       1.000
    24        -3.380       1.000
    25        -3.144       1.000
    26        -3.086       1.000
    27        -2.158       1.000
    28        -1.636       0.997
    29        -0.336       0.001
    30        -0.108       0.000
    31        -0.094       0.000
    32         0.517       0.000
    33         0.808       0.000
    34         2.020       0.000
    35         2.824       0.000
    36         3.387       0.000
   ...
    41         5.218       0.000
(only showing first 3 out of 121 k-points)

Gap: 1.068 eV
Transition (v -> c):
  (s=0, k=60, n=28, [0.00, 0.00, 0.00]) -> (s=0, k=60, n=29, [0.00, 0.00, 0.00])
# Writing to gsq-12.gpw (mode='')

---

timing:  # [seconds]
  Total: 2027.963  # ━━━━━━━━━━━━━━━━━━━━━━━━━━━━━━━━━━━━━━━━━━━━━━━━━━━━━━━━
  Init:    25.565  # ╸
  SCF:   2002.031  # ━━━━━━━━━━━━━━━━━━━━━━━━━━━━━━━━━━━━━━━━━━━━━━━━━━━━━━━╸

Max RSS: 1335.734  # MiB
