#  __  _  _
# | _ |_)|_||  |
# |__||  | ||/\| - 24.1.0

User:   s194113@n-62-29-20
Date:   Mon Apr 22 19:57:51 2024
Arch:   x86_64
Pid:    6039
CWD:    /zhome/87/8/147075/10302/10302_NM/MnI2/E_con
Python: 3.8.5
gpaw:   /zhome/87/8/147075/venv-name/gpaw/gpaw (10808453a8)
_gpaw:  /zhome/87/8/147075/venv-name/gpaw/
        _gpaw.cpython-38-x86_64-linux-gnu.so (10808453a8)
ase:    /zhome/87/8/147075/venv-name/ase/ase (version 3.23.0b1-c36115a2db)
numpy:  /zhome/87/8/147075/venv-name/lib/python3.8/site-packages/numpy (version 1.24.4)
scipy:  /zhome/87/8/147075/venv-name/lib/python3.8/site-packages/scipy (version 1.10.1)
libxc:  4.3.4
units:  Angstrom and eV
cores: 12
OpenMP: False
OMP_NUM_THREADS: 1

---
input parameters:
  kpts: 
    density: 6.0
    gamma: True
  magmoms: [[1, 0, 0], [0, 0, 0], [0, 0, 0]]
  mixer: 
    backend: 'pulay'
    beta: 0.05
    method: 'sum'
    nmaxold: 5
    weight: 100
  mode: 
    name: 'pw'
    ecut: 700
    qspiral: array([0.30952381, 0.30952381, 0.        ])
  parallel: 
    kpt: None
    domain: 1
    band: 1
    order: 'kdb'
    stridebands: False
    augment_grids: False
    sl_auto: False
    sl_default: None
    sl_diagonalize: None
    sl_inverse_cholesky: None
    sl_lcao: None
    sl_lrtddft: None
    use_elpa: False
    elpasolver: '2stage'
    buffer_size: None
    gpu: False
  symmetry: 
    point_group: False
    time_reversal: False
  xc: 
    name: 'LDA'

#                        
#                        
#                        
#                        
#                        
#              I         
#                        
#        Mn              
#          I             
#                        
#                        
#                        
#                        
#                        

atoms: [  # symbols, positions [Ang] and initial magnetic moments
  [ Mn, [   0.000000,    0.000000,    7.513573], [ 1.000,  0.000,  0.000]], # 0
  [  I, [   2.083000,    1.202621,    9.027147], [ 0.000,  0.000,  0.000]], # 1
  [  I, [   0.000000,    2.405241,    6.000000], [ 0.000,  0.000,  0.000]]] # 2

cell: [  # Ang
#     x            y            z
  [   4.166000,    0.000000,    0.000000],
  [  -2.083000,    3.607862,    0.000000],
  [   0.000000,   -0.000000,   15.027147]]

periodic: [True      , True      , False     ]
lengths:  [  4.166000,   4.166000,  15.027147]  # Ang
angles:   [ 90.000000,  90.000000, 120.000000]

symmetry:
  number of symmetries: 1
  rotations: [
    [[ 1,  0,  0], [ 0,  1,  0], [ 0,  0,  1]]]

bz sampling:
  number of bz points: 121
  number of ibz points: 121
  monkhorst-pack size: [11, 11, 1]
  monkhorst-pack shift: [0, 0, 0]
  points and weights: [
    [[ -0.45454545,  -0.45454545,   0.00000000], 0.00826446],  # 0
    [[ -0.45454545,  -0.36363636,   0.00000000], 0.00826446],  # 1
    [[ -0.45454545,  -0.27272727,   0.00000000], 0.00826446],  # 2
    [[ -0.45454545,  -0.18181818,   0.00000000], 0.00826446],  # 3
    [[ -0.45454545,  -0.09090909,   0.00000000], 0.00826446],  # 4
    [[ -0.45454545,   0.00000000,   0.00000000], 0.00826446],  # 5
    [[ -0.45454545,   0.09090909,   0.00000000], 0.00826446],  # 6
    [[ -0.45454545,   0.18181818,   0.00000000], 0.00826446],  # 7
    [[ -0.45454545,   0.27272727,   0.00000000], 0.00826446],  # 8
    [[ -0.45454545,   0.36363636,   0.00000000], 0.00826446],  # 9
    # ...
    [[  0.45454545,   0.45454545,   0.00000000], 0.00826446]]  # 120

plane wave coefficients: 9535
cutoff: 700.0 eV

spin-components: 4  # (non-collinear spins)
bands: 42
valence electrons: 29.0
spin-degeneracy: 1
dtype: complex128

memory:
    wave functions: 1_543_789_632  # bytes  (128_649_136 per core)

parallelization:
    kpt:    12
    domain: 1
    band:   1

density:
  components: 4
  grid points: [27 27 96]
  charge: 0.0  # |e|

potential:
  grid points: [27 27 96]

species:
  Mn:
    name: Manganese
    id: 0d715a8018be061a6e9ea6f2d364ac92
    Z: 25.0
    valence: 15
    core: 10
    charge: 0.0
    file: /zhome/86/d/1666/PAW/gpaw-setups-0.9.20000/Mn.LDA.gz
    compensation charges: {type: gauss,
                           rc: 0.38,
                           lmax: 2}
    cutoffs: {filter: 2.14,
              core: 0.86}
    valence states:
      #              energy  rcut
      - 3s(2.00)   -85.387   1.275
      - 4s(2.00)    -5.282   1.275
      - 3p(6.00)   -54.493   1.281
      - 4p(0.00)    -1.471   1.281
      - 3d(5.00)    -7.009   1.138
      -  d          20.203   1.138
  
    # Using partial waves for Mn as LCAO basis

  I:
    name: Iodine
    id: b559721c0c096a7b4c8fc0e0f4de5cf4
    Z: 53.0
    valence: 7
    core: 46
    charge: 0.0
    file: /zhome/86/d/1666/PAW/gpaw-setups-0.9.20000/I.LDA.gz
    compensation charges: {type: gauss,
                           rc: 0.37,
                           lmax: 2}
    cutoffs: {filter: 2.06,
              core: 2.90}
    valence states:
      #              energy  rcut
      - 5s(2.00)   -17.626   1.164
      - 5p(5.00)    -7.241   1.164
      -  s           9.585   1.164
      -  p          19.970   1.164
      -  d           0.000   1.164
  
    # Using partial waves for I as LCAO basis

Reference energy: -418222.442431  # eV

eigensolver:
  name: 'Davidson'
  niter: 2
  converge_bands: 'occupied'
Density mixing:
  Method: sum
  Backend: pulay
  Linear mixing parameter: 0.05
  old densities: 5
  Damping of long wavelength oscillations: 100
occupation numbers:
  Fermi-Dirac:
    width: 0.1000  # eV
  

poisson solver:
  ecut: 5600.0  # eV

xc functional:
  name: None

convergence criteria:
- Maximum [total energy] change in last 3 cyles: 0.0005 eV / valence electron
- Maximum integral of absolute [dens]ity change: 0.0001 electrons / valence electron
- Maximum integral of absolute [eigenst]ate change: 4e-08 eV^2 / valence electron
maximum number of iterations: 333

#      iter     time        total  log10-change:
#                          energy   eigst   dens
# iter:   1 19:58:32   -14.677719                  +1.0,+0.0,+0.0
# iter:   2 19:58:58   -13.793864   -0.07  -1.10   +0.9,-0.0,-0.0
# iter:   3 19:59:24   -13.644394   -0.67  -1.38   +1.1,-0.0,-0.0
# iter:   4 19:59:50   -13.856568   -0.93  -1.55   +1.3,-0.0,+0.0
# iter:   5 20:00:16   -13.943397   -1.48  -1.64   +1.7,-0.0,+0.0
# iter:   6 20:00:42   -14.170421   -1.70  -1.60   +1.9,-0.0,-0.0
# iter:   7 20:01:08   -14.188993   -1.99  -1.48   +2.0,-0.0,-0.0
# iter:   8 20:01:34   -13.084667   -1.57  -1.43   +1.2,-0.0,+0.0
# iter:   9 20:02:00   -13.325410   -2.22  -1.65   +0.7,-0.0,+0.0
# iter:  10 20:02:26   -13.449211   -2.34  -1.84   +0.7,-0.0,+0.0
# iter:  11 20:02:51   -13.406331   -2.69  -1.78   +0.7,-0.0,+0.0
# iter:  12 20:03:18   -13.582407   -2.40  -1.88   +1.1,-0.0,+0.0
# iter:  13 20:03:44   -13.594546   -3.19  -1.96   +1.2,-0.0,+0.0
# iter:  14 20:04:10   -13.594738c  -3.44  -1.84   +1.3,-0.0,+0.0
# iter:  15 20:04:35   -13.626928   -3.73  -1.83   +1.4,-0.0,+0.0
# iter:  16 20:05:01   -13.578102   -3.70  -1.79   +1.4,-0.0,+0.0
# iter:  17 20:05:27   -13.898256   -2.67  -1.79   +1.7,+0.0,+0.0
# iter:  18 20:05:52   -13.627552   -3.00  -1.72   +1.6,-0.0,+0.0
# iter:  19 20:06:18   -13.729225   -3.00  -1.70   +1.7,-0.0,+0.0
# iter:  20 20:06:44   -13.839062   -3.57  -1.67   +1.8,+0.0,+0.0
# iter:  21 20:07:09   -13.822224   -4.11  -1.69   +1.8,-0.0,+0.0
# iter:  22 20:07:35   -14.341605   -2.02  -1.66   +2.4,+0.0,+0.0
# iter:  23 20:08:01   -14.371685   -2.52  -1.79   +2.6,+0.0,+0.0
# iter:  24 20:08:27   -14.329082   -2.56  -1.79   +2.5,+0.0,+0.0
# iter:  25 20:08:52   -14.336951   -3.56  -1.68   +2.5,+0.0,+0.0
# iter:  26 20:09:18   -14.534595   -2.27  -1.70   +2.8,+0.0,+0.0
# iter:  27 20:09:43   -14.526281   -3.49  -1.81   +2.8,+0.0,+0.0
# iter:  28 20:10:09   -14.757204   -1.69  -1.80   +3.1,+0.0,+0.0
# iter:  29 20:10:35   -14.754877   -2.78  -2.15   +3.0,+0.0,+0.0
# iter:  30 20:11:01   -14.745785c  -3.46  -2.16   +3.0,+0.0,+0.0
# iter:  31 20:11:26   -14.754709c  -3.80  -2.19   +3.0,+0.0,+0.0
# iter:  32 20:11:52   -14.782722   -2.90  -2.13   +3.1,+0.0,+0.0
# iter:  33 20:12:18   -14.951517   -3.26  -2.29   +3.4,+0.0,+0.0
# iter:  34 20:12:44   -15.128612   -2.55  -2.35   +3.8,+0.0,+0.0
# iter:  35 20:13:10   -15.137702   -3.44  -2.55   +3.9,+0.0,+0.0
# iter:  36 20:13:35   -15.162168   -3.63  -2.56   +4.0,+0.0,+0.0
# iter:  37 20:14:01   -15.177273   -3.76  -2.73   +4.0,+0.0,+0.0
# iter:  38 20:14:27   -15.191675   -3.51  -2.81   +4.2,+0.0,+0.0
# iter:  39 20:14:53   -15.193667   -3.87  -3.04   +4.2,+0.0,+0.0
# iter:  40 20:15:19   -15.193282c  -4.80  -3.49   +4.2,+0.0,+0.0
# iter:  41 20:15:45   -15.194159c  -4.54  -3.40   +4.2,+0.0,+0.0
# iter:  42 20:16:10   -15.194134c  -5.09  -3.58   +4.2,+0.0,+0.0
# iter:  43 20:16:36   -15.194059c  -5.02  -3.42   +4.2,+0.0,+0.0
# iter:  44 20:17:01   -15.194040c  -5.48  -3.68   +4.2,+0.0,+0.0
# iter:  45 20:17:27   -15.193953c  -5.63  -3.71   +4.2,+0.0,+0.0
# iter:  46 20:17:53   -15.193973c  -5.75  -3.67   +4.2,+0.0,+0.0
# iter:  47 20:18:18   -15.194092c  -5.98  -3.84   +4.2,+0.0,+0.0
# iter:  48 20:18:44   -15.194163c  -5.67  -3.90   +4.2,+0.0,+0.0
# iter:  49 20:19:10   -15.194197c  -5.94  -4.01c  +4.2,+0.0,+0.0
# iter:  50 20:19:36   -15.194179c  -6.42  -3.97   +4.2,+0.0,+0.0
# iter:  51 20:20:01   -15.194188c  -5.88  -4.11c  +4.3,+0.0,+0.0
# iter:  52 20:20:27   -15.194196c  -6.53  -4.20c  +4.3,+0.0,+0.0
# iter:  53 20:20:53   -15.194192c  -6.83  -4.43c  +4.3,+0.0,+0.0
# iter:  54 20:21:19   -15.194185c  -7.07  -4.48c  +4.3,+0.0,+0.0
# iter:  55 20:21:45   -15.194189c  -7.25  -4.51c  +4.3,+0.0,+0.0
# iter:  56 20:22:10   -15.194195c  -7.15  -4.54c  +4.3,+0.0,+0.0
# iter:  57 20:22:36   -15.194197c  -7.49c -4.67c  +4.3,+0.0,+0.0
scf_steps: 57
energies:  # eV
  coulomb:         -17.257625
  zero:              0.090734
  xc:              -18.359081
  external:          0.000000
  kinetic:          20.332781
  spinorbit:         0.000000
  entropy:          -0.002012
  total:           -15.195203
  extrapolated:    -15.194197

dipole moment: [-4.847072, -8.395372, -9.065894]  # |e|*Ang

total magnetic moment: [4.252179, 0.001994, 0.000000]

local magnetic moments: [
  [ 4.243227,  0.000000,  0.000000],  # Mn 0
  [-0.002339, -0.005961,  0.000000],  # I  1
  [-0.002340, -0.005960,  0.000000]]  # I  2


Fermi level: -1.050 eV

kpt = [-0.455, -0.455, 0.000], weight = 0.008:
  Band      eig [eV]   occ [0-1]
     0       -81.916       1.000
   ...
    21        -4.196       1.000
    22        -3.934       1.000
    23        -3.623       1.000
    24        -3.520       1.000
    25        -3.389       1.000
    26        -3.384       1.000
    27        -1.937       1.000
    28        -1.902       1.000
    29        -0.279       0.000
    30        -0.107       0.000
    31        -0.050       0.000
    32         0.668       0.000
    33         0.669       0.000
    34         2.317       0.000
    35         3.031       0.000
    36         4.312       0.000
   ...
    41         5.248       0.000

kpt = [-0.455, -0.364, 0.000], weight = 0.008:
  Band      eig [eV]   occ [0-1]
     0       -81.916       1.000
   ...
    21        -4.030       1.000
    22        -3.923       1.000
    23        -3.657       1.000
    24        -3.510       1.000
    25        -3.349       1.000
    26        -3.233       1.000
    27        -2.015       1.000
    28        -1.776       0.999
    29        -0.257       0.000
    30        -0.191       0.000
    31        -0.057       0.000
    32         0.649       0.000
    33         0.754       0.000
    34         2.060       0.000
    35         2.759       0.000
    36         3.756       0.000
   ...
    41         5.139       0.000

kpt = [-0.455, -0.273, 0.000], weight = 0.008:
  Band      eig [eV]   occ [0-1]
     0       -81.916       1.000
   ...
    21        -3.806       1.000
    22        -3.784       1.000
    23        -3.662       1.000
    24        -3.452       1.000
    25        -3.268       1.000
    26        -3.099       1.000
    27        -2.014       1.000
    28        -1.676       0.998
    29        -0.402       0.002
    30        -0.135       0.000
    31        -0.075       0.000
    32         0.649       0.000
    33         0.808       0.000
    34         1.829       0.000
    35         2.413       0.000
    36         3.266       0.000
   ...
    41         4.851       0.000
(only showing first 3 out of 121 k-points)

Gap: 1.209 eV
Transition (v -> c):
  (s=0, k=77, n=28, [0.18, -0.45, 0.00]) -> (s=0, k=102, n=29, [0.36, -0.18, 0.00])
