#  __  _  _
# | _ |_)|_||  |
# |__||  | ||/\| - 24.1.0

User:   s194113@n-62-28-19
Date:   Mon Apr 22 17:39:41 2024
Arch:   x86_64
Pid:    27945
CWD:    /zhome/87/8/147075/10302/10302_NM/MnI2/E_con
Python: 3.8.5
gpaw:   /zhome/87/8/147075/venv-name/gpaw/gpaw (10808453a8)
_gpaw:  /zhome/87/8/147075/venv-name/gpaw/
        _gpaw.cpython-38-x86_64-linux-gnu.so (10808453a8)
ase:    /zhome/87/8/147075/venv-name/ase/ase (version 3.23.0b1-c36115a2db)
numpy:  /zhome/87/8/147075/venv-name/lib/python3.8/site-packages/numpy (version 1.24.4)
scipy:  /zhome/87/8/147075/venv-name/lib/python3.8/site-packages/scipy (version 1.10.1)
libxc:  4.3.4
units:  Angstrom and eV
cores: 12
OpenMP: False
OMP_NUM_THREADS: 1

---
input parameters:
  kpts: 
    density: 6.0
    gamma: True
  magmoms: [[1, 0, 0], [0, 0, 0], [0, 0, 0]]
  mixer: 
    backend: 'pulay'
    beta: 0.05
    method: 'sum'
    nmaxold: 5
    weight: 100
  mode: 
    name: 'pw'
    ecut: 1000
    qspiral: array([0.4, 0. , 0. ])
  parallel: 
    kpt: None
    domain: 1
    band: 1
    order: 'kdb'
    stridebands: False
    augment_grids: False
    sl_auto: False
    sl_default: None
    sl_diagonalize: None
    sl_inverse_cholesky: None
    sl_lcao: None
    sl_lrtddft: None
    use_elpa: False
    elpasolver: '2stage'
    buffer_size: None
    gpu: False
  symmetry: 
    point_group: False
    time_reversal: False
  xc: 
    name: 'LDA'

#                        
#                        
#                        
#                        
#                        
#              I         
#                        
#        Mn              
#          I             
#                        
#                        
#                        
#                        
#                        

atoms: [  # symbols, positions [Ang] and initial magnetic moments
  [ Mn, [   0.000000,    0.000000,    7.513573], [ 1.000,  0.000,  0.000]], # 0
  [  I, [   2.083000,    1.202621,    9.027147], [ 0.000,  0.000,  0.000]], # 1
  [  I, [   0.000000,    2.405241,    6.000000], [ 0.000,  0.000,  0.000]]] # 2

cell: [  # Ang
#     x            y            z
  [   4.166000,    0.000000,    0.000000],
  [  -2.083000,    3.607862,    0.000000],
  [   0.000000,   -0.000000,   15.027147]]

periodic: [True      , True      , False     ]
lengths:  [  4.166000,   4.166000,  15.027147]  # Ang
angles:   [ 90.000000,  90.000000, 120.000000]

symmetry:
  number of symmetries: 1
  rotations: [
    [[ 1,  0,  0], [ 0,  1,  0], [ 0,  0,  1]]]

bz sampling:
  number of bz points: 121
  number of ibz points: 121
  monkhorst-pack size: [11, 11, 1]
  monkhorst-pack shift: [0, 0, 0]
  points and weights: [
    [[ -0.45454545,  -0.45454545,   0.00000000], 0.00826446],  # 0
    [[ -0.45454545,  -0.36363636,   0.00000000], 0.00826446],  # 1
    [[ -0.45454545,  -0.27272727,   0.00000000], 0.00826446],  # 2
    [[ -0.45454545,  -0.18181818,   0.00000000], 0.00826446],  # 3
    [[ -0.45454545,  -0.09090909,   0.00000000], 0.00826446],  # 4
    [[ -0.45454545,   0.00000000,   0.00000000], 0.00826446],  # 5
    [[ -0.45454545,   0.09090909,   0.00000000], 0.00826446],  # 6
    [[ -0.45454545,   0.18181818,   0.00000000], 0.00826446],  # 7
    [[ -0.45454545,   0.27272727,   0.00000000], 0.00826446],  # 8
    [[ -0.45454545,   0.36363636,   0.00000000], 0.00826446],  # 9
    # ...
    [[  0.45454545,   0.45454545,   0.00000000], 0.00826446]]  # 120

plane wave coefficients: 16265
cutoff: 1000.0 eV

spin-components: 4  # (non-collinear spins)
bands: 42
valence electrons: 29.0
spin-degeneracy: 1
dtype: complex128

memory:
    wave functions: 2_636_460_288  # bytes  (219_705_024 per core)

parallelization:
    kpt:    12
    domain: 1
    band:   1

density:
  components: 4
  grid points: [ 32  32 112]
  charge: 0.0  # |e|

potential:
  grid points: [ 32  32 112]

species:
  Mn:
    name: Manganese
    id: 0d715a8018be061a6e9ea6f2d364ac92
    Z: 25.0
    valence: 15
    core: 10
    charge: 0.0
    file: /zhome/86/d/1666/PAW/gpaw-setups-0.9.20000/Mn.LDA.gz
    compensation charges: {type: gauss,
                           rc: 0.38,
                           lmax: 2}
    cutoffs: {filter: 2.14,
              core: 0.86}
    valence states:
      #              energy  rcut
      - 3s(2.00)   -85.387   1.275
      - 4s(2.00)    -5.282   1.275
      - 3p(6.00)   -54.493   1.281
      - 4p(0.00)    -1.471   1.281
      - 3d(5.00)    -7.009   1.138
      -  d          20.203   1.138
  
    # Using partial waves for Mn as LCAO basis

  I:
    name: Iodine
    id: b559721c0c096a7b4c8fc0e0f4de5cf4
    Z: 53.0
    valence: 7
    core: 46
    charge: 0.0
    file: /zhome/86/d/1666/PAW/gpaw-setups-0.9.20000/I.LDA.gz
    compensation charges: {type: gauss,
                           rc: 0.37,
                           lmax: 2}
    cutoffs: {filter: 2.06,
              core: 2.90}
    valence states:
      #              energy  rcut
      - 5s(2.00)   -17.626   1.164
      - 5p(5.00)    -7.241   1.164
      -  s           9.585   1.164
      -  p          19.970   1.164
      -  d           0.000   1.164
  
    # Using partial waves for I as LCAO basis

Reference energy: -418222.442431  # eV

eigensolver:
  name: 'Davidson'
  niter: 2
  converge_bands: 'occupied'
Density mixing:
  Method: sum
  Backend: pulay
  Linear mixing parameter: 0.05
  old densities: 5
  Damping of long wavelength oscillations: 100
occupation numbers:
  Fermi-Dirac:
    width: 0.1000  # eV
  

poisson solver:
  ecut: 8000.0  # eV

xc functional:
  name: None

convergence criteria:
- Maximum [total energy] change in last 3 cyles: 0.0005 eV / valence electron
- Maximum integral of absolute [dens]ity change: 0.0001 electrons / valence electron
- Maximum integral of absolute [eigenst]ate change: 4e-08 eV^2 / valence electron
maximum number of iterations: 333

#      iter     time        total  log10-change:
#                          energy   eigst   dens
# iter:   1 17:40:42   -14.915273                  +1.0,+0.0,+0.0
# iter:   2 17:41:22   -13.822050   -0.25  -1.10   +0.9,-0.0,+0.0
# iter:   3 17:42:02   -13.650897   -0.78  -1.38   +1.1,-0.0,+0.0
# iter:   4 17:42:42   -13.850379   -1.00  -1.54   +1.4,-0.0,+0.0
# iter:   5 17:43:22   -13.920836   -1.60  -1.65   +1.8,-0.0,+0.0
# iter:   6 17:44:02   -14.148757   -1.77  -1.62   +2.0,-0.0,-0.0
# iter:   7 17:44:42   -14.238597   -2.14  -1.49   +2.3,-0.0,-0.0
# iter:   8 17:45:21   -14.527234   -0.88  -1.45   +3.0,+0.0,-0.0
# iter:   9 17:46:01   -14.594871   -2.32  -1.94   +2.9,+0.0,-0.0
# iter:  10 17:46:41   -14.872651   -1.87  -1.71   +3.5,+0.0,+0.0
# iter:  11 17:47:20   -15.220270   -1.33  -2.02   +4.8,+0.0,+0.0
# iter:  12 17:48:00   -15.072804   -1.69  -1.73   +3.8,+0.0,+0.0
# iter:  13 17:48:39   -15.187740   -2.20  -1.90   +4.5,+0.0,-0.0
# iter:  14 17:49:19   -15.183365   -2.96  -2.58   +4.3,+0.0,+0.0
# iter:  15 17:49:59   -15.183271c  -3.62  -2.79   +4.3,+0.0,-0.0
# iter:  16 17:50:39   -15.187575c  -3.74  -2.75   +4.4,+0.0,-0.0
# iter:  17 17:51:19   -15.187180c  -4.00  -2.87   +4.4,+0.0,+0.0
# iter:  18 17:51:58   -15.186682c  -4.14  -2.88   +4.4,+0.0,+0.0
# iter:  19 17:52:38   -15.186467c  -4.32  -2.98   +4.4,+0.0,+0.0
# iter:  20 17:53:18   -15.186480c  -4.74  -3.17   +4.4,+0.0,+0.0
# iter:  21 17:53:58   -15.186409c  -4.52  -3.22   +4.4,+0.0,+0.0
# iter:  22 17:54:38   -15.186403c  -5.04  -3.40   +4.4,+0.0,+0.0
# iter:  23 17:55:18   -15.186768c  -4.86  -3.50   +4.5,+0.0,+0.0
# iter:  24 17:55:57   -15.186791c  -5.32  -3.63   +4.5,+0.0,+0.0
# iter:  25 17:56:37   -15.186821c  -5.44  -3.65   +4.5,+0.0,+0.0
# iter:  26 17:57:17   -15.186820c  -5.64  -3.69   +4.5,+0.0,+0.0
# iter:  27 17:57:57   -15.186809c  -5.74  -3.73   +4.5,+0.0,+0.0
# iter:  28 17:58:36   -15.186806c  -5.94  -4.04c  +4.5,+0.0,+0.0
# iter:  29 17:59:16   -15.186795c  -6.06  -4.11c  +4.5,+0.0,+0.0
# iter:  30 17:59:56   -15.186807c  -6.20  -4.38c  +4.5,+0.0,+0.0
# iter:  31 18:00:35   -15.186803c  -6.41  -4.35c  +4.5,+0.0,+0.0
# iter:  32 18:01:15   -15.186810c  -6.25  -4.43c  +4.5,+0.0,+0.0
# iter:  33 18:01:55   -15.186813c  -6.65  -4.59c  +4.5,+0.0,+0.0
# iter:  34 18:02:34   -15.186815c  -6.80  -5.04c  +4.5,+0.0,+0.0
# iter:  35 18:03:15   -15.186814c  -6.94  -5.13c  +4.5,+0.0,+0.0
# iter:  36 18:03:55   -15.186815c  -7.05  -5.18c  +4.5,+0.0,+0.0
# iter:  37 18:04:34   -15.186815c  -7.19  -5.30c  +4.5,+0.0,+0.0
# iter:  38 18:05:14   -15.186814c  -7.32  -5.35c  +4.5,+0.0,+0.0
# iter:  39 18:05:54   -15.186814c  -7.44c -5.48c  +4.5,+0.0,+0.0
scf_steps: 39
energies:  # eV
  coulomb:         -17.464153
  zero:              0.089981
  xc:              -18.401159
  external:          0.000000
  kinetic:          20.589852
  spinorbit:         0.000000
  entropy:          -0.002670
  total:           -15.188149
  extrapolated:    -15.186814

dipole moment: [-5.037957, -9.263524, -10.446656]  # |e|*Ang

total magnetic moment: [4.460013, 0.007563, 0.000000]

local magnetic moments: [
  [ 4.259144,  0.000000,  0.000000],  # Mn 0
  [-0.014494, -0.030065,  0.000000],  # I  1
  [ 0.029397, -0.015804,  0.000000]]  # I  2


Fermi level: -1.050 eV

kpt = [-0.455, -0.455, 0.000], weight = 0.008:
  Band      eig [eV]   occ [0-1]
     0       -81.936       1.000
   ...
    21        -3.964       1.000
    22        -3.843       1.000
    23        -3.729       1.000
    24        -3.631       1.000
    25        -3.305       1.000
    26        -3.236       1.000
    27        -1.960       1.000
    28        -1.771       0.999
    29        -0.334       0.001
    30        -0.140       0.000
    31        -0.101       0.000
    32         0.630       0.000
    33         0.804       0.000
    34         2.004       0.000
    35         2.878       0.000
    36         3.674       0.000
   ...
    41         5.354       0.000

kpt = [-0.455, -0.364, 0.000], weight = 0.008:
  Band      eig [eV]   occ [0-1]
     0       -81.936       1.000
   ...
    21        -3.982       1.000
    22        -3.747       1.000
    23        -3.691       1.000
    24        -3.535       1.000
    25        -3.256       1.000
    26        -3.190       1.000
    27        -2.047       1.000
    28        -1.706       0.999
    29        -0.338       0.001
    30        -0.147       0.000
    31        -0.073       0.000
    32         0.625       0.000
    33         0.781       0.000
    34         1.902       0.000
    35         2.780       0.000
    36         3.347       0.000
   ...
    41         5.402       0.000

kpt = [-0.455, -0.273, 0.000], weight = 0.008:
  Band      eig [eV]   occ [0-1]
     0       -81.936       1.000
   ...
    21        -3.918       1.000
    22        -3.672       1.000
    23        -3.641       1.000
    24        -3.409       1.000
    25        -3.221       1.000
    26        -3.069       1.000
    27        -2.137       1.000
    28        -1.697       0.998
    29        -0.283       0.000
    30        -0.136       0.000
    31        -0.085       0.000
    32         0.522       0.000
    33         0.767       0.000
    34         2.191       0.000
    35         2.860       0.000
    36         3.554       0.000
   ...
    41         5.330       0.000
(only showing first 3 out of 121 k-points)

Gap: 0.907 eV
Transition (v -> c):
  (s=0, k=60, n=28, [0.00, 0.00, 0.00]) -> (s=0, k=5, n=29, [-0.45, 0.00, 0.00])
# Writing to gsq-08.gpw (mode='')

