#  __  _  _
# | _ |_)|_||  |
# |__||  | ||/\| - 24.1.0

User:   s194113@n-62-28-19
Date:   Mon Apr 22 15:33:05 2024
Arch:   x86_64
Pid:    27945
CWD:    /zhome/87/8/147075/10302/10302_NM/MnI2/E_con
Python: 3.8.5
gpaw:   /zhome/87/8/147075/venv-name/gpaw/gpaw (10808453a8)
_gpaw:  /zhome/87/8/147075/venv-name/gpaw/
        _gpaw.cpython-38-x86_64-linux-gnu.so (10808453a8)
ase:    /zhome/87/8/147075/venv-name/ase/ase (version 3.23.0b1-c36115a2db)
numpy:  /zhome/87/8/147075/venv-name/lib/python3.8/site-packages/numpy (version 1.24.4)
scipy:  /zhome/87/8/147075/venv-name/lib/python3.8/site-packages/scipy (version 1.10.1)
libxc:  4.3.4
units:  Angstrom and eV
cores: 12
OpenMP: False
OMP_NUM_THREADS: 1

---
input parameters:
  kpts: 
    density: 6.0
    gamma: True
  magmoms: [[1, 0, 0], [0, 0, 0], [0, 0, 0]]
  mixer: 
    backend: 'pulay'
    beta: 0.05
    method: 'sum'
    nmaxold: 5
    weight: 100
  mode: 
    name: 'pw'
    ecut: 1000
    qspiral: array([0.15, 0.  , 0.  ])
  parallel: 
    kpt: None
    domain: 1
    band: 1
    order: 'kdb'
    stridebands: False
    augment_grids: False
    sl_auto: False
    sl_default: None
    sl_diagonalize: None
    sl_inverse_cholesky: None
    sl_lcao: None
    sl_lrtddft: None
    use_elpa: False
    elpasolver: '2stage'
    buffer_size: None
    gpu: False
  symmetry: 
    point_group: False
    time_reversal: False
  xc: 
    name: 'LDA'

#                        
#                        
#                        
#                        
#                        
#              I         
#                        
#        Mn              
#          I             
#                        
#                        
#                        
#                        
#                        

atoms: [  # symbols, positions [Ang] and initial magnetic moments
  [ Mn, [   0.000000,    0.000000,    7.513573], [ 1.000,  0.000,  0.000]], # 0
  [  I, [   2.083000,    1.202621,    9.027147], [ 0.000,  0.000,  0.000]], # 1
  [  I, [   0.000000,    2.405241,    6.000000], [ 0.000,  0.000,  0.000]]] # 2

cell: [  # Ang
#     x            y            z
  [   4.166000,    0.000000,    0.000000],
  [  -2.083000,    3.607862,    0.000000],
  [   0.000000,   -0.000000,   15.027147]]

periodic: [True      , True      , False     ]
lengths:  [  4.166000,   4.166000,  15.027147]  # Ang
angles:   [ 90.000000,  90.000000, 120.000000]

symmetry:
  number of symmetries: 1
  rotations: [
    [[ 1,  0,  0], [ 0,  1,  0], [ 0,  0,  1]]]

bz sampling:
  number of bz points: 121
  number of ibz points: 121
  monkhorst-pack size: [11, 11, 1]
  monkhorst-pack shift: [0, 0, 0]
  points and weights: [
    [[ -0.45454545,  -0.45454545,   0.00000000], 0.00826446],  # 0
    [[ -0.45454545,  -0.36363636,   0.00000000], 0.00826446],  # 1
    [[ -0.45454545,  -0.27272727,   0.00000000], 0.00826446],  # 2
    [[ -0.45454545,  -0.18181818,   0.00000000], 0.00826446],  # 3
    [[ -0.45454545,  -0.09090909,   0.00000000], 0.00826446],  # 4
    [[ -0.45454545,   0.00000000,   0.00000000], 0.00826446],  # 5
    [[ -0.45454545,   0.09090909,   0.00000000], 0.00826446],  # 6
    [[ -0.45454545,   0.18181818,   0.00000000], 0.00826446],  # 7
    [[ -0.45454545,   0.27272727,   0.00000000], 0.00826446],  # 8
    [[ -0.45454545,   0.36363636,   0.00000000], 0.00826446],  # 9
    # ...
    [[  0.45454545,   0.45454545,   0.00000000], 0.00826446]]  # 120

plane wave coefficients: 16265
cutoff: 1000.0 eV

spin-components: 4  # (non-collinear spins)
bands: 42
valence electrons: 29.0
spin-degeneracy: 1
dtype: complex128

memory:
    wave functions: 2_636_460_288  # bytes  (219_705_024 per core)

parallelization:
    kpt:    12
    domain: 1
    band:   1

density:
  components: 4
  grid points: [ 32  32 112]
  charge: 0.0  # |e|

potential:
  grid points: [ 32  32 112]

species:
  Mn:
    name: Manganese
    id: 0d715a8018be061a6e9ea6f2d364ac92
    Z: 25.0
    valence: 15
    core: 10
    charge: 0.0
    file: /zhome/86/d/1666/PAW/gpaw-setups-0.9.20000/Mn.LDA.gz
    compensation charges: {type: gauss,
                           rc: 0.38,
                           lmax: 2}
    cutoffs: {filter: 2.14,
              core: 0.86}
    valence states:
      #              energy  rcut
      - 3s(2.00)   -85.387   1.275
      - 4s(2.00)    -5.282   1.275
      - 3p(6.00)   -54.493   1.281
      - 4p(0.00)    -1.471   1.281
      - 3d(5.00)    -7.009   1.138
      -  d          20.203   1.138
  
    # Using partial waves for Mn as LCAO basis

  I:
    name: Iodine
    id: b559721c0c096a7b4c8fc0e0f4de5cf4
    Z: 53.0
    valence: 7
    core: 46
    charge: 0.0
    file: /zhome/86/d/1666/PAW/gpaw-setups-0.9.20000/I.LDA.gz
    compensation charges: {type: gauss,
                           rc: 0.37,
                           lmax: 2}
    cutoffs: {filter: 2.06,
              core: 2.90}
    valence states:
      #              energy  rcut
      - 5s(2.00)   -17.626   1.164
      - 5p(5.00)    -7.241   1.164
      -  s           9.585   1.164
      -  p          19.970   1.164
      -  d           0.000   1.164
  
    # Using partial waves for I as LCAO basis

Reference energy: -418222.442431  # eV

eigensolver:
  name: 'Davidson'
  niter: 2
  converge_bands: 'occupied'
Density mixing:
  Method: sum
  Backend: pulay
  Linear mixing parameter: 0.05
  old densities: 5
  Damping of long wavelength oscillations: 100
occupation numbers:
  Fermi-Dirac:
    width: 0.1000  # eV
  

poisson solver:
  ecut: 8000.0  # eV

xc functional:
  name: None

convergence criteria:
- Maximum [total energy] change in last 3 cyles: 0.0005 eV / valence electron
- Maximum integral of absolute [dens]ity change: 0.0001 electrons / valence electron
- Maximum integral of absolute [eigenst]ate change: 4e-08 eV^2 / valence electron
maximum number of iterations: 333

#      iter     time        total  log10-change:
#                          energy   eigst   dens
# iter:   1 15:34:07   -15.123660                  +1.0,+0.0,+0.0
# iter:   2 15:34:47   -13.818693   -0.50  -1.10   +0.9,-0.0,-0.0
# iter:   3 15:35:27   -13.616496   -0.92  -1.37   +1.0,-0.0,-0.0
# iter:   4 15:36:08   -13.779074   -1.04  -1.53   +1.3,-0.0,-0.0
# iter:   5 15:36:48   -13.814645   -1.79  -1.64   +1.8,-0.0,-0.0
# iter:   6 15:37:28   -13.921106   -2.07  -1.63   +2.1,-0.0,-0.0
# iter:   7 15:38:08   -14.036490   -2.08  -1.54   +2.4,-0.0,-0.0
# iter:   8 15:38:48   -14.457721   -1.26  -1.53   +3.2,+0.0,-0.0
# iter:   9 15:39:27   -14.256705   -2.77  -1.73   +3.1,+0.0,-0.0
# iter:  10 15:40:07   -14.529235   -2.51  -1.67   +3.4,+0.0,-0.0
# iter:  11 15:40:47   -14.815475   -2.09  -1.66   +3.8,+0.0,-0.0
# iter:  12 15:41:28   -15.025699   -2.31  -1.87   +4.3,+0.0,-0.0
# iter:  13 15:42:08   -15.138676   -2.75  -2.06   +4.6,+0.0,-0.0
# iter:  14 15:42:47   -15.166059   -3.11  -2.19   +4.7,+0.0,+0.0
# iter:  15 15:43:27   -15.150308   -2.62  -2.21   +4.7,+0.0,+0.0
# iter:  16 15:44:07   -15.161370   -3.27  -2.55   +4.8,+0.0,+0.0
# iter:  17 15:44:47   -15.156291c  -3.71  -2.61   +4.7,+0.0,-0.0
# iter:  18 15:45:27   -15.160148c  -3.64  -2.72   +4.8,+0.0,+0.0
# iter:  19 15:46:07   -15.162910c  -3.84  -2.84   +4.8,+0.0,+0.0
# iter:  20 15:46:47   -15.163444c  -4.41  -3.09   +4.8,+0.0,+0.0
# iter:  21 15:47:27   -15.163912c  -3.58  -3.12   +4.9,+0.0,+0.0
# iter:  22 15:48:07   -15.163593c  -4.52  -3.27   +4.9,+0.0,+0.0
# iter:  23 15:48:47   -15.163608c  -4.82  -3.61   +4.9,+0.0,+0.0
# iter:  24 15:49:27   -15.163752c  -4.78  -3.70   +4.9,+0.0,+0.0
# iter:  25 15:50:07   -15.163691c  -5.40  -3.61   +4.9,+0.0,+0.0
# iter:  26 15:50:47   -15.163637c  -5.36  -3.75   +4.9,+0.0,+0.0
# iter:  27 15:51:26   -15.163644c  -5.62  -3.97   +4.9,+0.0,+0.0
# iter:  28 15:52:06   -15.163643c  -5.99  -4.30c  +4.9,+0.0,+0.0
# iter:  29 15:52:46   -15.163645c  -6.17  -4.25c  +4.9,+0.0,+0.0
# iter:  30 15:53:25   -15.163635c  -6.22  -4.20c  +4.9,+0.0,+0.0
# iter:  31 15:54:05   -15.163635c  -6.49  -4.28c  +4.9,+0.0,+0.0
# iter:  32 15:54:45   -15.163659c  -5.84  -4.33c  +4.9,+0.0,+0.0
# iter:  33 15:55:24   -15.163639c  -6.13  -4.29c  +4.9,+0.0,+0.0
# iter:  34 15:56:04   -15.163640c  -6.96  -4.86c  +4.9,+0.0,+0.0
# iter:  35 15:56:44   -15.163647c  -6.65  -4.94c  +4.9,+0.0,+0.0
# iter:  36 15:57:24   -15.163642c  -7.11  -4.66c  +4.9,+0.0,+0.0
# iter:  37 15:58:03   -15.163640c  -7.37  -5.12c  +4.9,+0.0,+0.0
# iter:  38 15:58:44   -15.163639c  -7.53c -5.42c  +4.9,+0.0,+0.0
scf_steps: 38
energies:  # eV
  coulomb:         -18.139639
  zero:              0.088443
  xc:              -18.515890
  external:          0.000000
  kinetic:          21.405250
  spinorbit:         0.000000
  entropy:          -0.003607
  total:           -15.165442
  extrapolated:    -15.163639

dipole moment: [-5.757157, -10.129214, -13.715094]  # |e|*Ang

total magnetic moment: [4.876109, 0.012013, 0.000000]

local magnetic moments: [
  [ 4.297526, -0.000000,  0.000000],  # Mn 0
  [ 0.065949, -0.048804,  0.000000],  # I  1
  [ 0.078247, -0.024668,  0.000000]]  # I  2


Fermi level: -1.093 eV

kpt = [-0.455, -0.455, 0.000], weight = 0.008:
  Band      eig [eV]   occ [0-1]
     0       -82.000       1.000
   ...
    21        -3.923       1.000
    22        -3.826       1.000
    23        -3.776       1.000
    24        -3.701       1.000
    25        -3.553       1.000
    26        -3.442       1.000
    27        -1.811       0.999
    28        -1.742       0.998
    29        -0.539       0.004
    30        -0.154       0.000
    31        -0.113       0.000
    32         0.764       0.000
    33         0.858       0.000
    34         1.544       0.000
    35         2.545       0.000
    36         3.108       0.000
   ...
    41         4.993       0.000

kpt = [-0.455, -0.364, 0.000], weight = 0.008:
  Band      eig [eV]   occ [0-1]
     0       -82.000       1.000
   ...
    21        -4.005       1.000
    22        -3.875       1.000
    23        -3.719       1.000
    24        -3.603       1.000
    25        -3.482       1.000
    26        -3.341       1.000
    27        -1.938       1.000
    28        -1.843       0.999
    29        -0.388       0.001
    30        -0.150       0.000
    31        -0.095       0.000
    32         0.649       0.000
    33         0.781       0.000
    34         1.912       0.000
    35         2.860       0.000
    36         3.622       0.000
   ...
    41         5.300       0.000

kpt = [-0.455, -0.273, 0.000], weight = 0.008:
  Band      eig [eV]   occ [0-1]
     0       -82.000       1.000
   ...
    21        -4.051       1.000
    22        -3.900       1.000
    23        -3.689       1.000
    24        -3.618       1.000
    25        -3.397       1.000
    26        -3.271       1.000
    27        -2.078       1.000
    28        -1.851       0.999
    29        -0.297       0.000
    30        -0.132       0.000
    31        -0.097       0.000
    32         0.560       0.000
    33         0.748       0.000
    34         2.297       0.000
    35         3.063       0.000
    36         3.910       0.000
   ...
    41         5.331       0.000
(only showing first 3 out of 121 k-points)

Gap: 0.786 eV
Transition (v -> c):
  (s=0, k=60, n=28, [0.00, 0.00, 0.00]) -> (s=0, k=5, n=29, [-0.45, 0.00, 0.00])
# Writing to gsq-03.gpw (mode='')

