#  __  _  _
# | _ |_)|_||  |
# |__||  | ||/\| - 24.1.0

User:   s194113@n-62-28-19
Date:   Mon Apr 22 16:48:06 2024
Arch:   x86_64
Pid:    27945
CWD:    /zhome/87/8/147075/10302/10302_NM/MnI2/E_con
Python: 3.8.5
gpaw:   /zhome/87/8/147075/venv-name/gpaw/gpaw (10808453a8)
_gpaw:  /zhome/87/8/147075/venv-name/gpaw/
        _gpaw.cpython-38-x86_64-linux-gnu.so (10808453a8)
ase:    /zhome/87/8/147075/venv-name/ase/ase (version 3.23.0b1-c36115a2db)
numpy:  /zhome/87/8/147075/venv-name/lib/python3.8/site-packages/numpy (version 1.24.4)
scipy:  /zhome/87/8/147075/venv-name/lib/python3.8/site-packages/scipy (version 1.10.1)
libxc:  4.3.4
units:  Angstrom and eV
cores: 12
OpenMP: False
OMP_NUM_THREADS: 1

---
input parameters:
  kpts: 
    density: 6.0
    gamma: True
  magmoms: [[1, 0, 0], [0, 0, 0], [0, 0, 0]]
  mixer: 
    backend: 'pulay'
    beta: 0.05
    method: 'sum'
    nmaxold: 5
    weight: 100
  mode: 
    name: 'pw'
    ecut: 1000
    qspiral: array([0.3, 0. , 0. ])
  parallel: 
    kpt: None
    domain: 1
    band: 1
    order: 'kdb'
    stridebands: False
    augment_grids: False
    sl_auto: False
    sl_default: None
    sl_diagonalize: None
    sl_inverse_cholesky: None
    sl_lcao: None
    sl_lrtddft: None
    use_elpa: False
    elpasolver: '2stage'
    buffer_size: None
    gpu: False
  symmetry: 
    point_group: False
    time_reversal: False
  xc: 
    name: 'LDA'

#                        
#                        
#                        
#                        
#                        
#              I         
#                        
#        Mn              
#          I             
#                        
#                        
#                        
#                        
#                        

atoms: [  # symbols, positions [Ang] and initial magnetic moments
  [ Mn, [   0.000000,    0.000000,    7.513573], [ 1.000,  0.000,  0.000]], # 0
  [  I, [   2.083000,    1.202621,    9.027147], [ 0.000,  0.000,  0.000]], # 1
  [  I, [   0.000000,    2.405241,    6.000000], [ 0.000,  0.000,  0.000]]] # 2

cell: [  # Ang
#     x            y            z
  [   4.166000,    0.000000,    0.000000],
  [  -2.083000,    3.607862,    0.000000],
  [   0.000000,   -0.000000,   15.027147]]

periodic: [True      , True      , False     ]
lengths:  [  4.166000,   4.166000,  15.027147]  # Ang
angles:   [ 90.000000,  90.000000, 120.000000]

symmetry:
  number of symmetries: 1
  rotations: [
    [[ 1,  0,  0], [ 0,  1,  0], [ 0,  0,  1]]]

bz sampling:
  number of bz points: 121
  number of ibz points: 121
  monkhorst-pack size: [11, 11, 1]
  monkhorst-pack shift: [0, 0, 0]
  points and weights: [
    [[ -0.45454545,  -0.45454545,   0.00000000], 0.00826446],  # 0
    [[ -0.45454545,  -0.36363636,   0.00000000], 0.00826446],  # 1
    [[ -0.45454545,  -0.27272727,   0.00000000], 0.00826446],  # 2
    [[ -0.45454545,  -0.18181818,   0.00000000], 0.00826446],  # 3
    [[ -0.45454545,  -0.09090909,   0.00000000], 0.00826446],  # 4
    [[ -0.45454545,   0.00000000,   0.00000000], 0.00826446],  # 5
    [[ -0.45454545,   0.09090909,   0.00000000], 0.00826446],  # 6
    [[ -0.45454545,   0.18181818,   0.00000000], 0.00826446],  # 7
    [[ -0.45454545,   0.27272727,   0.00000000], 0.00826446],  # 8
    [[ -0.45454545,   0.36363636,   0.00000000], 0.00826446],  # 9
    # ...
    [[  0.45454545,   0.45454545,   0.00000000], 0.00826446]]  # 120

plane wave coefficients: 16265
cutoff: 1000.0 eV

spin-components: 4  # (non-collinear spins)
bands: 42
valence electrons: 29.0
spin-degeneracy: 1
dtype: complex128

memory:
    wave functions: 2_636_460_288  # bytes  (219_705_024 per core)

parallelization:
    kpt:    12
    domain: 1
    band:   1

density:
  components: 4
  grid points: [ 32  32 112]
  charge: 0.0  # |e|

potential:
  grid points: [ 32  32 112]

species:
  Mn:
    name: Manganese
    id: 0d715a8018be061a6e9ea6f2d364ac92
    Z: 25.0
    valence: 15
    core: 10
    charge: 0.0
    file: /zhome/86/d/1666/PAW/gpaw-setups-0.9.20000/Mn.LDA.gz
    compensation charges: {type: gauss,
                           rc: 0.38,
                           lmax: 2}
    cutoffs: {filter: 2.14,
              core: 0.86}
    valence states:
      #              energy  rcut
      - 3s(2.00)   -85.387   1.275
      - 4s(2.00)    -5.282   1.275
      - 3p(6.00)   -54.493   1.281
      - 4p(0.00)    -1.471   1.281
      - 3d(5.00)    -7.009   1.138
      -  d          20.203   1.138
  
    # Using partial waves for Mn as LCAO basis

  I:
    name: Iodine
    id: b559721c0c096a7b4c8fc0e0f4de5cf4
    Z: 53.0
    valence: 7
    core: 46
    charge: 0.0
    file: /zhome/86/d/1666/PAW/gpaw-setups-0.9.20000/I.LDA.gz
    compensation charges: {type: gauss,
                           rc: 0.37,
                           lmax: 2}
    cutoffs: {filter: 2.06,
              core: 2.90}
    valence states:
      #              energy  rcut
      - 5s(2.00)   -17.626   1.164
      - 5p(5.00)    -7.241   1.164
      -  s           9.585   1.164
      -  p          19.970   1.164
      -  d           0.000   1.164
  
    # Using partial waves for I as LCAO basis

Reference energy: -418222.442431  # eV

eigensolver:
  name: 'Davidson'
  niter: 2
  converge_bands: 'occupied'
Density mixing:
  Method: sum
  Backend: pulay
  Linear mixing parameter: 0.05
  old densities: 5
  Damping of long wavelength oscillations: 100
occupation numbers:
  Fermi-Dirac:
    width: 0.1000  # eV
  

poisson solver:
  ecut: 8000.0  # eV

xc functional:
  name: None

convergence criteria:
- Maximum [total energy] change in last 3 cyles: 0.0005 eV / valence electron
- Maximum integral of absolute [dens]ity change: 0.0001 electrons / valence electron
- Maximum integral of absolute [eigenst]ate change: 4e-08 eV^2 / valence electron
maximum number of iterations: 333

#      iter     time        total  log10-change:
#                          energy   eigst   dens
# iter:   1 16:49:07   -15.018745                  +1.0,+0.0,+0.0
# iter:   2 16:49:48   -13.820053   -0.36  -1.10   +0.9,-0.0,-0.0
# iter:   3 16:50:28   -13.633776   -0.84  -1.38   +1.0,-0.0,-0.0
# iter:   4 16:51:08   -13.820950   -1.01  -1.54   +1.3,-0.0,-0.0
# iter:   5 16:51:48   -13.877990   -1.68  -1.64   +1.8,-0.0,-0.0
# iter:   6 16:52:29   -14.062793   -1.89  -1.62   +2.1,-0.0,-0.0
# iter:   7 16:53:09   -14.167894   -2.24  -1.50   +2.3,-0.0,-0.0
# iter:   8 16:53:49   -14.649872   -0.92  -1.46   +3.3,+0.0,-0.0
# iter:   9 16:54:29   -14.751336   -2.31  -1.95   +3.4,+0.0,-0.0
# iter:  10 16:55:08   -14.943913   -2.10  -1.86   +3.8,+0.0,-0.0
# iter:  11 16:55:48   -15.185842   -1.42  -2.08   +5.1,+0.0,-0.0
# iter:  12 16:56:28   -15.095717   -1.88  -1.72   +4.1,+0.0,-0.0
# iter:  13 16:57:08   -15.180991   -2.55  -2.11   +4.7,+0.0,+0.0
# iter:  14 16:57:48   -15.174674   -3.55  -2.63   +4.5,+0.0,-0.0
# iter:  15 16:58:27   -15.177790c  -3.95  -2.75   +4.5,+0.0,-0.0
# iter:  16 16:59:07   -15.181344c  -3.94  -2.88   +4.6,+0.0,-0.0
# iter:  17 16:59:47   -15.181512c  -4.25  -2.99   +4.6,+0.0,-0.0
# iter:  18 17:00:27   -15.181618c  -4.46  -3.17   +4.6,+0.0,-0.0
# iter:  19 17:01:06   -15.181785c  -4.60  -3.26   +4.6,+0.0,-0.0
# iter:  20 17:01:46   -15.181809c  -4.78  -3.34   +4.6,+0.0,-0.0
# iter:  21 17:02:26   -15.181807c  -5.05  -3.35   +4.6,+0.0,-0.0
# iter:  22 17:03:05   -15.181684c  -5.30  -3.37   +4.6,+0.0,+0.0
# iter:  23 17:03:45   -15.181704c  -5.50  -3.51   +4.6,+0.0,-0.0
# iter:  24 17:04:25   -15.181770c  -5.52  -3.53   +4.6,+0.0,-0.0
# iter:  25 17:05:05   -15.181776c  -5.78  -4.01c  +4.6,+0.0,-0.0
# iter:  26 17:05:44   -15.181775c  -5.98  -4.13c  +4.6,+0.0,-0.0
# iter:  27 17:06:24   -15.181783c  -6.11  -4.22c  +4.6,+0.0,-0.0
# iter:  28 17:07:04   -15.181781c  -6.31  -4.33c  +4.6,+0.0,+0.0
# iter:  29 17:07:43   -15.181782c  -6.50  -4.37c  +4.6,+0.0,-0.0
# iter:  30 17:08:23   -15.181801c  -6.52  -4.38c  +4.6,+0.0,+0.0
# iter:  31 17:09:03   -15.181801c  -6.71  -4.69c  +4.6,+0.0,-0.0
# iter:  32 17:09:42   -15.181803c  -6.73  -4.73c  +4.6,+0.0,+0.0
# iter:  33 17:10:22   -15.181804c  -7.04  -4.93c  +4.6,+0.0,+0.0
# iter:  34 17:11:02   -15.181805c  -7.14  -4.99c  +4.6,+0.0,-0.0
# iter:  35 17:11:41   -15.181804c  -7.32  -5.01c  +4.6,+0.0,-0.0
# iter:  36 17:12:21   -15.181806c  -7.35  -5.09c  +4.6,+0.0,-0.0
# iter:  37 17:13:00   -15.181804c  -7.44c -5.10c  +4.6,+0.0,-0.0
scf_steps: 37
energies:  # eV
  coulomb:         -17.634224
  zero:              0.089722
  xc:              -18.429992
  external:          0.000000
  kinetic:          20.793988
  spinorbit:         0.000000
  entropy:          -0.002598
  total:           -15.183103
  extrapolated:    -15.181804

dipole moment: [-5.343757, -9.615581, -11.808851]  # |e|*Ang

total magnetic moment: [4.630112, 0.012836, -0.000000]

local magnetic moments: [
  [ 4.269861,  0.000000, -0.000000],  # Mn 0
  [ 0.011265, -0.051370, -0.000000],  # I  1
  [ 0.045375, -0.026587, -0.000000]]  # I  2


Fermi level: -1.072 eV

kpt = [-0.455, -0.455, 0.000], weight = 0.008:
  Band      eig [eV]   occ [0-1]
     0       -81.954       1.000
   ...
    21        -3.963       1.000
    22        -3.839       1.000
    23        -3.739       1.000
    24        -3.671       1.000
    25        -3.366       1.000
    26        -3.326       1.000
    27        -1.894       1.000
    28        -1.759       0.999
    29        -0.426       0.002
    30        -0.139       0.000
    31        -0.099       0.000
    32         0.690       0.000
    33         0.821       0.000
    34         1.770       0.000
    35         2.816       0.000
    36         3.326       0.000
   ...
    41         5.288       0.000

kpt = [-0.455, -0.364, 0.000], weight = 0.008:
  Band      eig [eV]   occ [0-1]
     0       -81.954       1.000
   ...
    21        -4.029       1.000
    22        -3.791       1.000
    23        -3.715       1.000
    24        -3.552       1.000
    25        -3.366       1.000
    26        -3.248       1.000
    27        -1.981       1.000
    28        -1.762       0.999
    29        -0.373       0.001
    30        -0.145       0.000
    31        -0.075       0.000
    32         0.683       0.000
    33         0.745       0.000
    34         1.840       0.000
    35         2.840       0.000
    36         3.321       0.000
   ...
    41         5.381       0.000

kpt = [-0.455, -0.273, 0.000], weight = 0.008:
  Band      eig [eV]   occ [0-1]
     0       -81.954       1.000
   ...
    21        -4.032       1.000
    22        -3.759       1.000
    23        -3.674       1.000
    24        -3.476       1.000
    25        -3.317       1.000
    26        -3.145       1.000
    27        -2.067       1.000
    28        -1.798       0.999
    29        -0.266       0.000
    30        -0.153       0.000
    31        -0.081       0.000
    32         0.563       0.000
    33         0.728       0.000
    34         2.249       0.000
    35         2.918       0.000
    36         3.787       0.000
   ...
    41         5.210       0.000
(only showing first 3 out of 121 k-points)

Gap: 0.852 eV
Transition (v -> c):
  (s=0, k=60, n=28, [0.00, 0.00, 0.00]) -> (s=0, k=5, n=29, [-0.45, 0.00, 0.00])
# Writing to gsq-06.gpw (mode='')

---

timing:  # [seconds]
  Total: 1495.345  # ━━━━━━━━━━━━━━━━━━━━━━━━━━━━━━━━━━━━━━━━━━━━━━━━━━━━━━━━
  Init:    25.736  # ━
  SCF:   1468.896  # ━━━━━━━━━━━━━━━━━━━━━━━━━━━━━━━━━━━━━━━━━━━━━━━━━━━━━━━

Max RSS: 855.164  # MiB
