#  __  _  _
# | _ |_)|_||  |
# |__||  | ||/\| - 24.1.0

User:   s194113@n-62-28-31
Date:   Mon Apr 22 15:15:55 2024
Arch:   x86_64
Pid:    1806
CWD:    /zhome/87/8/147075/10302/10302_NM/MnI2/E_con
Python: 3.8.5
gpaw:   /zhome/87/8/147075/venv-name/gpaw/gpaw (10808453a8)
_gpaw:  /zhome/87/8/147075/venv-name/gpaw/
        _gpaw.cpython-38-x86_64-linux-gnu.so (10808453a8)
ase:    /zhome/87/8/147075/venv-name/ase/ase (version 3.23.0b1-c36115a2db)
numpy:  /zhome/87/8/147075/venv-name/lib/python3.8/site-packages/numpy (version 1.24.4)
scipy:  /zhome/87/8/147075/venv-name/lib/python3.8/site-packages/scipy (version 1.10.1)
libxc:  4.3.4
units:  Angstrom and eV
cores: 12
OpenMP: False
OMP_NUM_THREADS: 1

---
input parameters:
  kpts: 
    density: 6.0
    gamma: True
  magmoms: [[1, 0, 0], [0, 0, 0], [0, 0, 0]]
  mixer: 
    backend: 'pulay'
    beta: 0.05
    method: 'sum'
    nmaxold: 5
    weight: 100
  mode: 
    name: 'pw'
    ecut: 400
    qspiral: array([0.11904762, 0.11904762, 0.        ])
  parallel: 
    kpt: None
    domain: 1
    band: 1
    order: 'kdb'
    stridebands: False
    augment_grids: False
    sl_auto: False
    sl_default: None
    sl_diagonalize: None
    sl_inverse_cholesky: None
    sl_lcao: None
    sl_lrtddft: None
    use_elpa: False
    elpasolver: '2stage'
    buffer_size: None
    gpu: False
  symmetry: 
    point_group: False
    time_reversal: False
  xc: 
    name: 'LDA'

#                        
#                        
#                        
#                        
#                        
#              I         
#                        
#        Mn              
#          I             
#                        
#                        
#                        
#                        
#                        

atoms: [  # symbols, positions [Ang] and initial magnetic moments
  [ Mn, [   0.000000,    0.000000,    7.513573], [ 1.000,  0.000,  0.000]], # 0
  [  I, [   2.083000,    1.202621,    9.027147], [ 0.000,  0.000,  0.000]], # 1
  [  I, [   0.000000,    2.405241,    6.000000], [ 0.000,  0.000,  0.000]]] # 2

cell: [  # Ang
#     x            y            z
  [   4.166000,    0.000000,    0.000000],
  [  -2.083000,    3.607862,    0.000000],
  [   0.000000,   -0.000000,   15.027147]]

periodic: [True      , True      , False     ]
lengths:  [  4.166000,   4.166000,  15.027147]  # Ang
angles:   [ 90.000000,  90.000000, 120.000000]

symmetry:
  number of symmetries: 1
  rotations: [
    [[ 1,  0,  0], [ 0,  1,  0], [ 0,  0,  1]]]

bz sampling:
  number of bz points: 121
  number of ibz points: 121
  monkhorst-pack size: [11, 11, 1]
  monkhorst-pack shift: [0, 0, 0]
  points and weights: [
    [[ -0.45454545,  -0.45454545,   0.00000000], 0.00826446],  # 0
    [[ -0.45454545,  -0.36363636,   0.00000000], 0.00826446],  # 1
    [[ -0.45454545,  -0.27272727,   0.00000000], 0.00826446],  # 2
    [[ -0.45454545,  -0.18181818,   0.00000000], 0.00826446],  # 3
    [[ -0.45454545,  -0.09090909,   0.00000000], 0.00826446],  # 4
    [[ -0.45454545,   0.00000000,   0.00000000], 0.00826446],  # 5
    [[ -0.45454545,   0.09090909,   0.00000000], 0.00826446],  # 6
    [[ -0.45454545,   0.18181818,   0.00000000], 0.00826446],  # 7
    [[ -0.45454545,   0.27272727,   0.00000000], 0.00826446],  # 8
    [[ -0.45454545,   0.36363636,   0.00000000], 0.00826446],  # 9
    # ...
    [[  0.45454545,   0.45454545,   0.00000000], 0.00826446]]  # 120

plane wave coefficients: 4118
cutoff: 400.0 eV

spin-components: 4  # (non-collinear spins)
bands: 42
valence electrons: 29.0
spin-degeneracy: 1
dtype: complex128

memory:
    wave functions: 669_685_632  # bytes  (55_807_136 per core)

parallelization:
    kpt:    12
    domain: 1
    band:   1

density:
  components: 4
  grid points: [20 20 70]
  charge: 0.0  # |e|

potential:
  grid points: [20 20 70]

species:
  Mn:
    name: Manganese
    id: 0d715a8018be061a6e9ea6f2d364ac92
    Z: 25.0
    valence: 15
    core: 10
    charge: 0.0
    file: /zhome/86/d/1666/PAW/gpaw-setups-0.9.20000/Mn.LDA.gz
    compensation charges: {type: gauss,
                           rc: 0.38,
                           lmax: 2}
    cutoffs: {filter: 2.14,
              core: 0.86}
    valence states:
      #              energy  rcut
      - 3s(2.00)   -85.387   1.275
      - 4s(2.00)    -5.282   1.275
      - 3p(6.00)   -54.493   1.281
      - 4p(0.00)    -1.471   1.281
      - 3d(5.00)    -7.009   1.138
      -  d          20.203   1.138
  
    # Using partial waves for Mn as LCAO basis

  I:
    name: Iodine
    id: b559721c0c096a7b4c8fc0e0f4de5cf4
    Z: 53.0
    valence: 7
    core: 46
    charge: 0.0
    file: /zhome/86/d/1666/PAW/gpaw-setups-0.9.20000/I.LDA.gz
    compensation charges: {type: gauss,
                           rc: 0.37,
                           lmax: 2}
    cutoffs: {filter: 2.06,
              core: 2.90}
    valence states:
      #              energy  rcut
      - 5s(2.00)   -17.626   1.164
      - 5p(5.00)    -7.241   1.164
      -  s           9.585   1.164
      -  p          19.970   1.164
      -  d           0.000   1.164
  
    # Using partial waves for I as LCAO basis

Reference energy: -418222.442431  # eV

eigensolver:
  name: 'Davidson'
  niter: 2
  converge_bands: 'occupied'
Density mixing:
  Method: sum
  Backend: pulay
  Linear mixing parameter: 0.05
  old densities: 5
  Damping of long wavelength oscillations: 100
occupation numbers:
  Fermi-Dirac:
    width: 0.1000  # eV
  

poisson solver:
  ecut: 3200.0  # eV

xc functional:
  name: None

convergence criteria:
- Maximum [total energy] change in last 3 cyles: 0.0005 eV / valence electron
- Maximum integral of absolute [dens]ity change: 0.0001 electrons / valence electron
- Maximum integral of absolute [eigenst]ate change: 4e-08 eV^2 / valence electron
maximum number of iterations: 333

#      iter     time        total  log10-change:
#                          energy   eigst   dens
# iter:   1 15:16:10   -15.075619                  +1.0,+0.0,+0.0
# iter:   2 15:16:19   -13.802139   -0.51  -1.10   +0.9,-0.0,+0.0
# iter:   3 15:16:28   -13.603719   -0.95  -1.38   +1.0,-0.0,+0.0
# iter:   4 15:16:38   -13.776377   -1.07  -1.54   +1.3,-0.0,+0.0
# iter:   5 15:16:47   -13.817381   -1.87  -1.64   +1.8,-0.0,-0.0
# iter:   6 15:16:56   -13.908096   -2.17  -1.63   +2.1,-0.0,-0.0
# iter:   7 15:17:05   -14.073402   -1.86  -1.55   +2.5,-0.0,-0.0
# iter:   8 15:17:14   -14.440900   -1.45  -1.56   +3.2,+0.0,-0.0
# iter:   9 15:17:23   -14.073715   -2.48  -1.71   +2.9,-0.0,-0.0
# iter:  10 15:17:32   -14.910880   -1.74  -1.60   +3.8,+0.0,-0.0
# iter:  11 15:17:41   -15.120953   -1.70  -1.86   +4.5,+0.0,-0.0
# iter:  12 15:17:50   -15.145634   -2.58  -2.15   +4.6,+0.0,-0.0
# iter:  13 15:17:59   -15.203577   -2.25  -2.14   +4.8,+0.0,-0.0
# iter:  14 15:18:08   -15.208196   -3.16  -1.97   +4.7,+0.0,+0.0
# iter:  15 15:18:17   -15.138045   -2.40  -2.02   +4.5,+0.0,+0.0
# iter:  16 15:18:26   -15.146935   -3.83  -2.22   +4.6,+0.0,+0.0
# iter:  17 15:18:34   -15.160758   -3.19  -2.28   +4.8,+0.0,+0.0
# iter:  18 15:18:43   -15.152130c  -2.92  -2.59   +4.7,+0.0,+0.0
# iter:  19 15:18:52   -15.153035c  -4.05  -2.79   +4.7,+0.0,+0.0
# iter:  20 15:19:01   -15.153483c  -4.43  -3.04   +4.8,+0.0,+0.0
# iter:  21 15:19:10   -15.153491c  -4.28  -3.20   +4.8,+0.0,+0.0
# iter:  22 15:19:18   -15.153373c  -4.91  -3.31   +4.8,+0.0,+0.0
# iter:  23 15:19:27   -15.153383c  -4.81  -3.33   +4.8,+0.0,+0.0
# iter:  24 15:19:36   -15.153500c  -5.39  -3.37   +4.8,+0.0,+0.0
# iter:  25 15:19:45   -15.153618c  -5.47  -3.45   +4.8,+0.0,+0.0
# iter:  26 15:19:53   -15.153636c  -5.78  -3.62   +4.8,+0.0,+0.0
# iter:  27 15:20:02   -15.153693c  -5.90  -3.64   +4.8,+0.0,+0.0
# iter:  28 15:20:11   -15.153729c  -5.88  -3.91   +4.8,+0.0,+0.0
# iter:  29 15:20:20   -15.153732c  -6.34  -3.98   +4.8,+0.0,+0.0
# iter:  30 15:20:28   -15.153773c  -6.20  -4.03c  +4.8,+0.0,+0.0
# iter:  31 15:20:37   -15.153782c  -6.59  -4.15c  +4.8,+0.0,+0.0
# iter:  32 15:20:46   -15.153788c  -6.60  -4.21c  +4.8,+0.0,+0.0
# iter:  33 15:20:54   -15.153792c  -6.68  -4.19c  +4.8,+0.0,+0.0
# iter:  34 15:21:03   -15.153792c  -6.72  -4.21c  +4.8,+0.0,+0.0
# iter:  35 15:21:12   -15.153793c  -7.13  -4.39c  +4.8,+0.0,+0.0
# iter:  36 15:21:21   -15.153792c  -7.29  -4.43c  +4.8,+0.0,+0.0
# iter:  37 15:21:29   -15.153791c  -7.53c -4.48c  +4.8,+0.0,+0.0
scf_steps: 37
energies:  # eV
  coulomb:         -18.079831
  zero:              0.098538
  xc:              -18.476119
  external:          0.000000
  kinetic:          21.305092
  spinorbit:         0.000000
  entropy:          -0.002942
  total:           -15.155263
  extrapolated:    -15.153791

dipole moment: [-5.327821, -9.228057, -13.084218]  # |e|*Ang

total magnetic moment: [4.790457, 0.016005, 0.000000]

local magnetic moments: [
  [ 4.283900, -0.000000,  0.000000],  # Mn 0
  [ 0.052533, -0.048743,  0.000000],  # I  1
  [ 0.052532, -0.048743,  0.000000]]  # I  2


Fermi level: -1.089 eV

kpt = [-0.455, -0.455, 0.000], weight = 0.008:
  Band      eig [eV]   occ [0-1]
     0       -81.981       1.000
   ...
    21        -3.893       1.000
    22        -3.862       1.000
    23        -3.809       1.000
    24        -3.635       1.000
    25        -3.557       1.000
    26        -3.436       1.000
    27        -1.815       0.999
    28        -1.777       0.999
    29        -0.492       0.003
    30        -0.164       0.000
    31        -0.098       0.000
    32         0.751       0.000
    33         0.844       0.000
    34         1.610       0.000
    35         2.697       0.000
    36         3.121       0.000
   ...
    41         5.227       0.000

kpt = [-0.455, -0.364, 0.000], weight = 0.008:
  Band      eig [eV]   occ [0-1]
     0       -81.981       1.000
   ...
    21        -3.999       1.000
    22        -3.854       1.000
    23        -3.763       1.000
    24        -3.649       1.000
    25        -3.449       1.000
    26        -3.357       1.000
    27        -1.928       1.000
    28        -1.810       0.999
    29        -0.388       0.001
    30        -0.175       0.000
    31        -0.088       0.000
    32         0.705       0.000
    33         0.786       0.000
    34         1.761       0.000
    35         2.861       0.000
    36         3.293       0.000
   ...
    41         5.377       0.000

kpt = [-0.455, -0.273, 0.000], weight = 0.008:
  Band      eig [eV]   occ [0-1]
     0       -81.981       1.000
   ...
    21        -4.096       1.000
    22        -3.860       1.000
    23        -3.700       1.000
    24        -3.642       1.000
    25        -3.357       1.000
    26        -3.298       1.000
    27        -2.011       1.000
    28        -1.847       0.999
    29        -0.269       0.000
    30        -0.176       0.000
    31        -0.105       0.000
    32         0.613       0.000
    33         0.768       0.000
    34         2.108       0.000
    35         2.793       0.000
    36         3.957       0.000
   ...
    41         5.097       0.000
(only showing first 3 out of 121 k-points)

Gap: 0.876 eV
Transition (v -> c):
  (s=0, k=60, n=28, [0.00, 0.00, 0.00]) -> (s=0, k=115, n=29, [0.45, 0.00, 0.00])
# Writing to gsq-25.gpw (mode='')

---

timing:  # [seconds]
  Total: 334.779  # ━━━━━━━━━━━━━━━━━━━━━━━━━━━━━━━━━━━━━━━━━━━━━━━━━━━━━━━━━
  Init:    6.528  # ━
  SCF:   327.909  # ━━━━━━━━━━━━━━━━━━━━━━━━━━━━━━━━━━━━━━━━━━━━━━━━━━━━━━━━

Max RSS: 948.461  # MiB
