#  __  _  _
# | _ |_)|_||  |
# |__||  | ||/\| - 24.1.0

User:   s194113@n-62-28-31
Date:   Mon Apr 22 15:27:00 2024
Arch:   x86_64
Pid:    1806
CWD:    /zhome/87/8/147075/10302/10302_NM/MnI2/E_con
Python: 3.8.5
gpaw:   /zhome/87/8/147075/venv-name/gpaw/gpaw (10808453a8)
_gpaw:  /zhome/87/8/147075/venv-name/gpaw/
        _gpaw.cpython-38-x86_64-linux-gnu.so (10808453a8)
ase:    /zhome/87/8/147075/venv-name/ase/ase (version 3.23.0b1-c36115a2db)
numpy:  /zhome/87/8/147075/venv-name/lib/python3.8/site-packages/numpy (version 1.24.4)
scipy:  /zhome/87/8/147075/venv-name/lib/python3.8/site-packages/scipy (version 1.10.1)
libxc:  4.3.4
units:  Angstrom and eV
cores: 12
OpenMP: False
OMP_NUM_THREADS: 1

---
input parameters:
  kpts: 
    density: 6.0
    gamma: True
  magmoms: [[1, 0, 0], [0, 0, 0], [0, 0, 0]]
  mixer: 
    backend: 'pulay'
    beta: 0.05
    method: 'sum'
    nmaxold: 5
    weight: 100
  mode: 
    name: 'pw'
    ecut: 400
    qspiral: array([0.07142857, 0.07142857, 0.        ])
  parallel: 
    kpt: None
    domain: 1
    band: 1
    order: 'kdb'
    stridebands: False
    augment_grids: False
    sl_auto: False
    sl_default: None
    sl_diagonalize: None
    sl_inverse_cholesky: None
    sl_lcao: None
    sl_lrtddft: None
    use_elpa: False
    elpasolver: '2stage'
    buffer_size: None
    gpu: False
  symmetry: 
    point_group: False
    time_reversal: False
  xc: 
    name: 'LDA'

#                        
#                        
#                        
#                        
#                        
#              I         
#                        
#        Mn              
#          I             
#                        
#                        
#                        
#                        
#                        

atoms: [  # symbols, positions [Ang] and initial magnetic moments
  [ Mn, [   0.000000,    0.000000,    7.513573], [ 1.000,  0.000,  0.000]], # 0
  [  I, [   2.083000,    1.202621,    9.027147], [ 0.000,  0.000,  0.000]], # 1
  [  I, [   0.000000,    2.405241,    6.000000], [ 0.000,  0.000,  0.000]]] # 2

cell: [  # Ang
#     x            y            z
  [   4.166000,    0.000000,    0.000000],
  [  -2.083000,    3.607862,    0.000000],
  [   0.000000,   -0.000000,   15.027147]]

periodic: [True      , True      , False     ]
lengths:  [  4.166000,   4.166000,  15.027147]  # Ang
angles:   [ 90.000000,  90.000000, 120.000000]

symmetry:
  number of symmetries: 1
  rotations: [
    [[ 1,  0,  0], [ 0,  1,  0], [ 0,  0,  1]]]

bz sampling:
  number of bz points: 121
  number of ibz points: 121
  monkhorst-pack size: [11, 11, 1]
  monkhorst-pack shift: [0, 0, 0]
  points and weights: [
    [[ -0.45454545,  -0.45454545,   0.00000000], 0.00826446],  # 0
    [[ -0.45454545,  -0.36363636,   0.00000000], 0.00826446],  # 1
    [[ -0.45454545,  -0.27272727,   0.00000000], 0.00826446],  # 2
    [[ -0.45454545,  -0.18181818,   0.00000000], 0.00826446],  # 3
    [[ -0.45454545,  -0.09090909,   0.00000000], 0.00826446],  # 4
    [[ -0.45454545,   0.00000000,   0.00000000], 0.00826446],  # 5
    [[ -0.45454545,   0.09090909,   0.00000000], 0.00826446],  # 6
    [[ -0.45454545,   0.18181818,   0.00000000], 0.00826446],  # 7
    [[ -0.45454545,   0.27272727,   0.00000000], 0.00826446],  # 8
    [[ -0.45454545,   0.36363636,   0.00000000], 0.00826446],  # 9
    # ...
    [[  0.45454545,   0.45454545,   0.00000000], 0.00826446]]  # 120

plane wave coefficients: 4118
cutoff: 400.0 eV

spin-components: 4  # (non-collinear spins)
bands: 42
valence electrons: 29.0
spin-degeneracy: 1
dtype: complex128

memory:
    wave functions: 669_685_632  # bytes  (55_807_136 per core)

parallelization:
    kpt:    12
    domain: 1
    band:   1

density:
  components: 4
  grid points: [20 20 70]
  charge: 0.0  # |e|

potential:
  grid points: [20 20 70]

species:
  Mn:
    name: Manganese
    id: 0d715a8018be061a6e9ea6f2d364ac92
    Z: 25.0
    valence: 15
    core: 10
    charge: 0.0
    file: /zhome/86/d/1666/PAW/gpaw-setups-0.9.20000/Mn.LDA.gz
    compensation charges: {type: gauss,
                           rc: 0.38,
                           lmax: 2}
    cutoffs: {filter: 2.14,
              core: 0.86}
    valence states:
      #              energy  rcut
      - 3s(2.00)   -85.387   1.275
      - 4s(2.00)    -5.282   1.275
      - 3p(6.00)   -54.493   1.281
      - 4p(0.00)    -1.471   1.281
      - 3d(5.00)    -7.009   1.138
      -  d          20.203   1.138
  
    # Using partial waves for Mn as LCAO basis

  I:
    name: Iodine
    id: b559721c0c096a7b4c8fc0e0f4de5cf4
    Z: 53.0
    valence: 7
    core: 46
    charge: 0.0
    file: /zhome/86/d/1666/PAW/gpaw-setups-0.9.20000/I.LDA.gz
    compensation charges: {type: gauss,
                           rc: 0.37,
                           lmax: 2}
    cutoffs: {filter: 2.06,
              core: 2.90}
    valence states:
      #              energy  rcut
      - 5s(2.00)   -17.626   1.164
      - 5p(5.00)    -7.241   1.164
      -  s           9.585   1.164
      -  p          19.970   1.164
      -  d           0.000   1.164
  
    # Using partial waves for I as LCAO basis

Reference energy: -418222.442431  # eV

eigensolver:
  name: 'Davidson'
  niter: 2
  converge_bands: 'occupied'
Density mixing:
  Method: sum
  Backend: pulay
  Linear mixing parameter: 0.05
  old densities: 5
  Damping of long wavelength oscillations: 100
occupation numbers:
  Fermi-Dirac:
    width: 0.1000  # eV
  

poisson solver:
  ecut: 3200.0  # eV

xc functional:
  name: None

convergence criteria:
- Maximum [total energy] change in last 3 cyles: 0.0005 eV / valence electron
- Maximum integral of absolute [dens]ity change: 0.0001 electrons / valence electron
- Maximum integral of absolute [eigenst]ate change: 4e-08 eV^2 / valence electron
maximum number of iterations: 333

#      iter     time        total  log10-change:
#                          energy   eigst   dens
# iter:   1 15:27:15   -15.124240                  +1.0,+0.0,+0.0
# iter:   2 15:27:24   -13.805308   -0.59  -1.10   +0.9,-0.0,-0.0
# iter:   3 15:27:32   -13.599791   -1.00  -1.37   +1.0,-0.0,-0.0
# iter:   4 15:27:41   -13.758430   -1.09  -1.53   +1.3,-0.0,+0.0
# iter:   5 15:27:50   -13.789207   -1.91  -1.65   +1.8,-0.0,+0.0
# iter:   6 15:27:58   -13.855305   -2.24  -1.64   +2.1,-0.0,+0.0
# iter:   7 15:28:07   -14.023066   -1.68  -1.58   +2.5,-0.0,+0.0
# iter:   8 15:28:16   -14.254204   -1.83  -1.61   +3.0,+0.0,+0.0
# iter:   9 15:28:25   -13.851181   -2.31  -1.65   +2.7,-0.0,+0.0
# iter:  10 15:28:33   -14.546549   -1.85  -1.54   +3.4,+0.0,+0.0
# iter:  11 15:28:42   -14.898404   -1.77  -1.79   +4.1,+0.0,+0.0
# iter:  12 15:28:51   -15.039079   -2.24  -1.99   +4.4,+0.0,+0.0
# iter:  13 15:29:00   -15.143216   -2.21  -2.11   +4.9,+0.0,+0.0
# iter:  14 15:29:08   -15.146569   -2.49  -2.34   +5.0,+0.0,+0.0
# iter:  15 15:29:17   -15.142433c  -3.36  -2.43   +4.8,+0.0,+0.0
# iter:  16 15:29:26   -15.144666c  -4.10  -2.45   +4.8,+0.0,+0.0
# iter:  17 15:29:34   -15.142629c  -3.78  -2.48   +4.9,+0.0,+0.0
# iter:  18 15:29:43   -15.141595c  -3.57  -2.54   +4.9,+0.0,+0.0
# iter:  19 15:29:52   -15.141592c  -4.07  -2.68   +4.9,+0.0,+0.0
# iter:  20 15:30:01   -15.141678c  -3.66  -2.74   +4.9,+0.0,+0.0
# iter:  21 15:30:09   -15.141640c  -4.85  -3.18   +4.9,+0.0,+0.0
# iter:  22 15:30:18   -15.141970c  -4.72  -3.25   +4.9,+0.0,+0.0
# iter:  23 15:30:27   -15.141863c  -4.76  -3.41   +4.9,+0.0,+0.0
# iter:  24 15:30:36   -15.141961c  -5.06  -3.35   +4.9,+0.0,+0.0
# iter:  25 15:30:44   -15.141886c  -5.50  -3.59   +4.9,+0.0,+0.0
# iter:  26 15:30:53   -15.141883c  -5.93  -3.78   +4.9,+0.0,+0.0
# iter:  27 15:31:02   -15.141988c  -5.50  -3.83   +4.9,+0.0,+0.0
# iter:  28 15:31:10   -15.141963c  -5.98  -3.91   +4.9,+0.0,+0.0
# iter:  29 15:31:19   -15.141986c  -5.90  -3.98   +4.9,+0.0,+0.0
# iter:  30 15:31:28   -15.142034c  -5.79  -4.11c  +4.9,+0.0,+0.0
# iter:  31 15:31:37   -15.141995c  -5.88  -4.05c  +4.9,+0.0,+0.0
# iter:  32 15:31:45   -15.141994c  -6.80  -4.52c  +4.9,+0.0,+0.0
# iter:  33 15:31:54   -15.142012c  -6.44  -4.57c  +4.9,+0.0,+0.0
# iter:  34 15:32:03   -15.142004c  -6.94  -4.41c  +4.9,+0.0,+0.0
# iter:  35 15:32:12   -15.141999c  -6.98  -4.70c  +4.9,+0.0,+0.0
# iter:  36 15:32:20   -15.142002c  -7.50c -4.90c  +4.9,+0.0,+0.0
scf_steps: 36
energies:  # eV
  coulomb:         -18.427688
  zero:              0.096574
  xc:              -18.533660
  external:          0.000000
  kinetic:          21.724752
  spinorbit:         0.000000
  entropy:          -0.003961
  total:           -15.143982
  extrapolated:    -15.142002

dipole moment: [-5.492371, -9.513065, -13.981397]  # |e|*Ang

total magnetic moment: [4.910513, 0.012235, 0.000000]

local magnetic moments: [
  [ 4.300218, -0.000000,  0.000000],  # Mn 0
  [ 0.077707, -0.037421,  0.000000],  # I  1
  [ 0.077707, -0.037422,  0.000000]]  # I  2


Fermi level: -1.091 eV

kpt = [-0.455, -0.455, 0.000], weight = 0.008:
  Band      eig [eV]   occ [0-1]
     0       -82.006       1.000
   ...
    21        -3.905       1.000
    22        -3.814       1.000
    23        -3.810       1.000
    24        -3.683       1.000
    25        -3.615       1.000
    26        -3.474       1.000
    27        -1.797       0.999
    28        -1.745       0.999
    29        -0.546       0.004
    30        -0.162       0.000
    31        -0.112       0.000
    32         0.773       0.000
    33         0.870       0.000
    34         1.517       0.000
    35         2.530       0.000
    36         3.087       0.000
   ...
    41         4.953       0.000

kpt = [-0.455, -0.364, 0.000], weight = 0.008:
  Band      eig [eV]   occ [0-1]
     0       -82.006       1.000
   ...
    21        -3.998       1.000
    22        -3.876       1.000
    23        -3.742       1.000
    24        -3.654       1.000
    25        -3.471       1.000
    26        -3.382       1.000
    27        -1.948       1.000
    28        -1.828       0.999
    29        -0.388       0.001
    30        -0.159       0.000
    31        -0.100       0.000
    32         0.653       0.000
    33         0.805       0.000
    34         1.871       0.000
    35         2.869       0.000
    36         3.605       0.000
   ...
    41         5.162       0.000

kpt = [-0.455, -0.273, 0.000], weight = 0.008:
  Band      eig [eV]   occ [0-1]
     0       -82.006       1.000
   ...
    21        -4.105       1.000
    22        -3.888       1.000
    23        -3.713       1.000
    24        -3.663       1.000
    25        -3.390       1.000
    26        -3.324       1.000
    27        -2.071       1.000
    28        -1.845       0.999
    29        -0.299       0.000
    30        -0.133       0.000
    31        -0.110       0.000
    32         0.575       0.000
    33         0.771       0.000
    34         2.225       0.000
    35         2.990       0.000
    36         4.025       0.000
   ...
    41         5.331       0.000
(only showing first 3 out of 121 k-points)

Gap: 0.798 eV
Transition (v -> c):
  (s=0, k=60, n=28, [0.00, 0.00, 0.00]) -> (s=0, k=5, n=29, [-0.45, 0.00, 0.00])
# Writing to gsq-27.gpw (mode='')

