#  __  _  _
# | _ |_)|_||  |
# |__||  | ||/\| - 24.1.0

User:   s194113@n-62-28-31
Date:   Mon Apr 22 14:58:21 2024
Arch:   x86_64
Pid:    1806
CWD:    /zhome/87/8/147075/10302/10302_NM/MnI2/E_con
Python: 3.8.5
gpaw:   /zhome/87/8/147075/venv-name/gpaw/gpaw (10808453a8)
_gpaw:  /zhome/87/8/147075/venv-name/gpaw/
        _gpaw.cpython-38-x86_64-linux-gnu.so (10808453a8)
ase:    /zhome/87/8/147075/venv-name/ase/ase (version 3.23.0b1-c36115a2db)
numpy:  /zhome/87/8/147075/venv-name/lib/python3.8/site-packages/numpy (version 1.24.4)
scipy:  /zhome/87/8/147075/venv-name/lib/python3.8/site-packages/scipy (version 1.10.1)
libxc:  4.3.4
units:  Angstrom and eV
cores: 12
OpenMP: False
OMP_NUM_THREADS: 1

---
input parameters:
  kpts: 
    density: 6.0
    gamma: True
  magmoms: [[1, 0, 0], [0, 0, 0], [0, 0, 0]]
  mixer: 
    backend: 'pulay'
    beta: 0.05
    method: 'sum'
    nmaxold: 5
    weight: 100
  mode: 
    name: 'pw'
    ecut: 400
    qspiral: array([0.19047619, 0.19047619, 0.        ])
  parallel: 
    kpt: None
    domain: 1
    band: 1
    order: 'kdb'
    stridebands: False
    augment_grids: False
    sl_auto: False
    sl_default: None
    sl_diagonalize: None
    sl_inverse_cholesky: None
    sl_lcao: None
    sl_lrtddft: None
    use_elpa: False
    elpasolver: '2stage'
    buffer_size: None
    gpu: False
  symmetry: 
    point_group: False
    time_reversal: False
  xc: 
    name: 'LDA'

#                        
#                        
#                        
#                        
#                        
#              I         
#                        
#        Mn              
#          I             
#                        
#                        
#                        
#                        
#                        

atoms: [  # symbols, positions [Ang] and initial magnetic moments
  [ Mn, [   0.000000,    0.000000,    7.513573], [ 1.000,  0.000,  0.000]], # 0
  [  I, [   2.083000,    1.202621,    9.027147], [ 0.000,  0.000,  0.000]], # 1
  [  I, [   0.000000,    2.405241,    6.000000], [ 0.000,  0.000,  0.000]]] # 2

cell: [  # Ang
#     x            y            z
  [   4.166000,    0.000000,    0.000000],
  [  -2.083000,    3.607862,    0.000000],
  [   0.000000,   -0.000000,   15.027147]]

periodic: [True      , True      , False     ]
lengths:  [  4.166000,   4.166000,  15.027147]  # Ang
angles:   [ 90.000000,  90.000000, 120.000000]

symmetry:
  number of symmetries: 1
  rotations: [
    [[ 1,  0,  0], [ 0,  1,  0], [ 0,  0,  1]]]

bz sampling:
  number of bz points: 121
  number of ibz points: 121
  monkhorst-pack size: [11, 11, 1]
  monkhorst-pack shift: [0, 0, 0]
  points and weights: [
    [[ -0.45454545,  -0.45454545,   0.00000000], 0.00826446],  # 0
    [[ -0.45454545,  -0.36363636,   0.00000000], 0.00826446],  # 1
    [[ -0.45454545,  -0.27272727,   0.00000000], 0.00826446],  # 2
    [[ -0.45454545,  -0.18181818,   0.00000000], 0.00826446],  # 3
    [[ -0.45454545,  -0.09090909,   0.00000000], 0.00826446],  # 4
    [[ -0.45454545,   0.00000000,   0.00000000], 0.00826446],  # 5
    [[ -0.45454545,   0.09090909,   0.00000000], 0.00826446],  # 6
    [[ -0.45454545,   0.18181818,   0.00000000], 0.00826446],  # 7
    [[ -0.45454545,   0.27272727,   0.00000000], 0.00826446],  # 8
    [[ -0.45454545,   0.36363636,   0.00000000], 0.00826446],  # 9
    # ...
    [[  0.45454545,   0.45454545,   0.00000000], 0.00826446]]  # 120

plane wave coefficients: 4118
cutoff: 400.0 eV

spin-components: 4  # (non-collinear spins)
bands: 42
valence electrons: 29.0
spin-degeneracy: 1
dtype: complex128

memory:
    wave functions: 669_685_632  # bytes  (55_807_136 per core)

parallelization:
    kpt:    12
    domain: 1
    band:   1

density:
  components: 4
  grid points: [20 20 70]
  charge: 0.0  # |e|

potential:
  grid points: [20 20 70]

species:
  Mn:
    name: Manganese
    id: 0d715a8018be061a6e9ea6f2d364ac92
    Z: 25.0
    valence: 15
    core: 10
    charge: 0.0
    file: /zhome/86/d/1666/PAW/gpaw-setups-0.9.20000/Mn.LDA.gz
    compensation charges: {type: gauss,
                           rc: 0.38,
                           lmax: 2}
    cutoffs: {filter: 2.14,
              core: 0.86}
    valence states:
      #              energy  rcut
      - 3s(2.00)   -85.387   1.275
      - 4s(2.00)    -5.282   1.275
      - 3p(6.00)   -54.493   1.281
      - 4p(0.00)    -1.471   1.281
      - 3d(5.00)    -7.009   1.138
      -  d          20.203   1.138
  
    # Using partial waves for Mn as LCAO basis

  I:
    name: Iodine
    id: b559721c0c096a7b4c8fc0e0f4de5cf4
    Z: 53.0
    valence: 7
    core: 46
    charge: 0.0
    file: /zhome/86/d/1666/PAW/gpaw-setups-0.9.20000/I.LDA.gz
    compensation charges: {type: gauss,
                           rc: 0.37,
                           lmax: 2}
    cutoffs: {filter: 2.06,
              core: 2.90}
    valence states:
      #              energy  rcut
      - 5s(2.00)   -17.626   1.164
      - 5p(5.00)    -7.241   1.164
      -  s           9.585   1.164
      -  p          19.970   1.164
      -  d           0.000   1.164
  
    # Using partial waves for I as LCAO basis

Reference energy: -418222.442431  # eV

eigensolver:
  name: 'Davidson'
  niter: 2
  converge_bands: 'occupied'
Density mixing:
  Method: sum
  Backend: pulay
  Linear mixing parameter: 0.05
  old densities: 5
  Damping of long wavelength oscillations: 100
occupation numbers:
  Fermi-Dirac:
    width: 0.1000  # eV
  

poisson solver:
  ecut: 3200.0  # eV

xc functional:
  name: None

convergence criteria:
- Maximum [total energy] change in last 3 cyles: 0.0005 eV / valence electron
- Maximum integral of absolute [dens]ity change: 0.0001 electrons / valence electron
- Maximum integral of absolute [eigenst]ate change: 4e-08 eV^2 / valence electron
maximum number of iterations: 333

#      iter     time        total  log10-change:
#                          energy   eigst   dens
# iter:   1 14:58:36   -14.972769                  +1.0,+0.0,+0.0
# iter:   2 14:58:45   -13.801146   -0.37  -1.10   +0.9,-0.0,-0.0
# iter:   3 14:58:54   -13.617441   -0.88  -1.38   +1.0,-0.0,+0.0
# iter:   4 14:59:03   -13.809678   -1.05  -1.54   +1.3,-0.0,+0.0
# iter:   5 14:59:11   -13.872156   -1.76  -1.64   +1.8,-0.0,+0.0
# iter:   6 14:59:20   -14.031162   -2.00  -1.61   +2.1,-0.0,+0.0
# iter:   7 14:59:29   -14.166798   -2.28  -1.51   +2.4,-0.0,+0.0
# iter:   8 14:59:38   -14.783818   -0.92  -1.48   +3.4,+0.0,+0.0
# iter:   9 14:59:46   -14.747636   -2.41  -1.91   +3.4,+0.0,+0.0
# iter:  10 14:59:55   -14.329863   -2.36  -1.86   +2.9,+0.0,+0.0
# iter:  11 15:00:04   -14.913285   -2.16  -1.86   +3.4,+0.0,+0.0
# iter:  12 15:00:13   -15.156649   -2.13  -1.95   +4.2,+0.0,+0.0
# iter:  13 15:00:21   -15.184633   -2.80  -2.07   +4.4,+0.0,+0.0
# iter:  14 15:00:30   -15.176003   -2.63  -2.09   +4.5,+0.0,+0.0
# iter:  15 15:00:39   -15.151796   -3.55  -2.33   +4.3,+0.0,+0.0
# iter:  16 15:00:47   -15.167562   -3.00  -2.16   +4.5,+0.0,+0.0
# iter:  17 15:00:56   -15.167998   -3.30  -2.60   +4.6,+0.0,+0.0
# iter:  18 15:01:05   -15.169365c  -4.13  -2.70   +4.5,+0.0,+0.0
# iter:  19 15:01:14   -15.168491c  -4.35  -2.76   +4.5,+0.0,+0.0
# iter:  20 15:01:22   -15.165017c  -4.04  -2.83   +4.5,+0.0,+0.0
# iter:  21 15:01:31   -15.165526c  -4.86  -3.00   +4.5,+0.0,+0.0
# iter:  22 15:01:40   -15.166606c  -3.91  -3.02   +4.5,+0.0,+0.0
# iter:  23 15:01:49   -15.166847c  -4.92  -3.25   +4.5,+0.0,+0.0
# iter:  24 15:01:57   -15.167211c  -4.76  -3.42   +4.6,+0.0,+0.0
# iter:  25 15:02:06   -15.167163c  -5.50  -3.36   +4.6,+0.0,+0.0
# iter:  26 15:02:15   -15.167196c  -5.08  -3.45   +4.6,+0.0,+0.0
# iter:  27 15:02:24   -15.167193c  -5.84  -3.98   +4.6,+0.0,+0.0
# iter:  28 15:02:32   -15.167201c  -5.60  -4.12c  +4.6,+0.0,+0.0
# iter:  29 15:02:41   -15.167206c  -6.07  -4.09c  +4.6,+0.0,+0.0
# iter:  30 15:02:50   -15.167206c  -6.36  -4.47c  +4.6,+0.0,+0.0
# iter:  31 15:02:58   -15.167206c  -6.51  -4.56c  +4.6,+0.0,+0.0
# iter:  32 15:03:07   -15.167210c  -6.53  -4.64c  +4.6,+0.0,+0.0
# iter:  33 15:03:16   -15.167211c  -6.77  -4.86c  +4.6,+0.0,+0.0
# iter:  34 15:03:25   -15.167211c  -6.92  -4.93c  +4.6,+0.0,+0.0
# iter:  35 15:03:33   -15.167210c  -7.05  -4.95c  +4.6,+0.0,+0.0
# iter:  36 15:03:42   -15.167211c  -7.19  -5.32c  +4.6,+0.0,+0.0
# iter:  37 15:03:51   -15.167211c  -7.30  -5.38c  +4.6,+0.0,+0.0
# iter:  38 15:03:59   -15.167211c  -7.47c -5.44c  +4.6,+0.0,+0.0
scf_steps: 38
energies:  # eV
  coulomb:         -17.708385
  zero:              0.098683
  xc:              -18.414070
  external:          0.000000
  kinetic:          20.857686
  spinorbit:         0.000000
  entropy:          -0.002251
  total:           -15.168336
  extrapolated:    -15.167211

dipole moment: [-5.041466, -8.732076, -11.475360]  # |e|*Ang

total magnetic moment: [4.577823, 0.014091, 0.000000]

local magnetic moments: [
  [ 4.262825, -0.000000,  0.000000],  # Mn 0
  [ 0.016750, -0.042679, -0.000000],  # I  1
  [ 0.016750, -0.042679,  0.000000]]  # I  2


Fermi level: -1.067 eV

kpt = [-0.455, -0.455, 0.000], weight = 0.008:
  Band      eig [eV]   occ [0-1]
     0       -81.945       1.000
   ...
    21        -3.950       1.000
    22        -3.886       1.000
    23        -3.761       1.000
    24        -3.529       1.000
    25        -3.477       1.000
    26        -3.390       1.000
    27        -1.850       1.000
    28        -1.849       1.000
    29        -0.376       0.001
    30        -0.159       0.000
    31        -0.072       0.000
    32         0.695       0.000
    33         0.788       0.000
    34         1.863       0.000
    35         2.877       0.000
    36         3.516       0.000
   ...
    41         5.218       0.000

kpt = [-0.455, -0.364, 0.000], weight = 0.008:
  Band      eig [eV]   occ [0-1]
     0       -81.945       1.000
   ...
    21        -4.035       1.000
    22        -3.822       1.000
    23        -3.786       1.000
    24        -3.606       1.000
    25        -3.398       1.000
    26        -3.309       1.000
    27        -1.991       1.000
    28        -1.729       0.999
    29        -0.369       0.001
    30        -0.187       0.000
    31        -0.066       0.000
    32         0.718       0.000
    33         0.796       0.000
    34         1.723       0.000
    35         2.804       0.000
    36         3.130       0.000
   ...
    41         5.588       0.000

kpt = [-0.455, -0.273, 0.000], weight = 0.008:
  Band      eig [eV]   occ [0-1]
     0       -81.945       1.000
   ...
    21        -4.098       1.000
    22        -3.779       1.000
    23        -3.724       1.000
    24        -3.584       1.000
    25        -3.296       1.000
    26        -3.236       1.000
    27        -2.020       1.000
    28        -1.743       0.999
    29        -0.302       0.000
    30        -0.192       0.000
    31        -0.086       0.000
    32         0.651       0.000
    33         0.803       0.000
    34         1.900       0.000
    35         2.555       0.000
    36         3.482       0.000
   ...
    41         4.905       0.000
(only showing first 3 out of 121 k-points)

Gap: 1.076 eV
Transition (v -> c):
  (s=0, k=60, n=28, [0.00, 0.00, 0.00]) -> (s=0, k=115, n=29, [0.45, 0.00, 0.00])
# Writing to gsq-22.gpw (mode='')

---

timing:  # [seconds]
  Total: 339.244  # ━━━━━━━━━━━━━━━━━━━━━━━━━━━━━━━━━━━━━━━━━━━━━━━━━━━━━━━━━
  Init:    6.473  # ━
  SCF:   331.867  # ━━━━━━━━━━━━━━━━━━━━━━━━━━━━━━━━━━━━━━━━━━━━━━━━━━━━━━━━

Max RSS: 859.258  # MiB
