#  __  _  _
# | _ |_)|_||  |
# |__||  | ||/\| - 24.1.0

User:   s194113@n-62-28-19
Date:   Mon Apr 22 17:13:01 2024
Arch:   x86_64
Pid:    27945
CWD:    /zhome/87/8/147075/10302/10302_NM/MnI2/E_con
Python: 3.8.5
gpaw:   /zhome/87/8/147075/venv-name/gpaw/gpaw (10808453a8)
_gpaw:  /zhome/87/8/147075/venv-name/gpaw/
        _gpaw.cpython-38-x86_64-linux-gnu.so (10808453a8)
ase:    /zhome/87/8/147075/venv-name/ase/ase (version 3.23.0b1-c36115a2db)
numpy:  /zhome/87/8/147075/venv-name/lib/python3.8/site-packages/numpy (version 1.24.4)
scipy:  /zhome/87/8/147075/venv-name/lib/python3.8/site-packages/scipy (version 1.10.1)
libxc:  4.3.4
units:  Angstrom and eV
cores: 12
OpenMP: False
OMP_NUM_THREADS: 1

---
input parameters:
  kpts: 
    density: 6.0
    gamma: True
  magmoms: [[1, 0, 0], [0, 0, 0], [0, 0, 0]]
  mixer: 
    backend: 'pulay'
    beta: 0.05
    method: 'sum'
    nmaxold: 5
    weight: 100
  mode: 
    name: 'pw'
    ecut: 1000
    qspiral: array([0.35, 0.  , 0.  ])
  parallel: 
    kpt: None
    domain: 1
    band: 1
    order: 'kdb'
    stridebands: False
    augment_grids: False
    sl_auto: False
    sl_default: None
    sl_diagonalize: None
    sl_inverse_cholesky: None
    sl_lcao: None
    sl_lrtddft: None
    use_elpa: False
    elpasolver: '2stage'
    buffer_size: None
    gpu: False
  symmetry: 
    point_group: False
    time_reversal: False
  xc: 
    name: 'LDA'

#                        
#                        
#                        
#                        
#                        
#              I         
#                        
#        Mn              
#          I             
#                        
#                        
#                        
#                        
#                        

atoms: [  # symbols, positions [Ang] and initial magnetic moments
  [ Mn, [   0.000000,    0.000000,    7.513573], [ 1.000,  0.000,  0.000]], # 0
  [  I, [   2.083000,    1.202621,    9.027147], [ 0.000,  0.000,  0.000]], # 1
  [  I, [   0.000000,    2.405241,    6.000000], [ 0.000,  0.000,  0.000]]] # 2

cell: [  # Ang
#     x            y            z
  [   4.166000,    0.000000,    0.000000],
  [  -2.083000,    3.607862,    0.000000],
  [   0.000000,   -0.000000,   15.027147]]

periodic: [True      , True      , False     ]
lengths:  [  4.166000,   4.166000,  15.027147]  # Ang
angles:   [ 90.000000,  90.000000, 120.000000]

symmetry:
  number of symmetries: 1
  rotations: [
    [[ 1,  0,  0], [ 0,  1,  0], [ 0,  0,  1]]]

bz sampling:
  number of bz points: 121
  number of ibz points: 121
  monkhorst-pack size: [11, 11, 1]
  monkhorst-pack shift: [0, 0, 0]
  points and weights: [
    [[ -0.45454545,  -0.45454545,   0.00000000], 0.00826446],  # 0
    [[ -0.45454545,  -0.36363636,   0.00000000], 0.00826446],  # 1
    [[ -0.45454545,  -0.27272727,   0.00000000], 0.00826446],  # 2
    [[ -0.45454545,  -0.18181818,   0.00000000], 0.00826446],  # 3
    [[ -0.45454545,  -0.09090909,   0.00000000], 0.00826446],  # 4
    [[ -0.45454545,   0.00000000,   0.00000000], 0.00826446],  # 5
    [[ -0.45454545,   0.09090909,   0.00000000], 0.00826446],  # 6
    [[ -0.45454545,   0.18181818,   0.00000000], 0.00826446],  # 7
    [[ -0.45454545,   0.27272727,   0.00000000], 0.00826446],  # 8
    [[ -0.45454545,   0.36363636,   0.00000000], 0.00826446],  # 9
    # ...
    [[  0.45454545,   0.45454545,   0.00000000], 0.00826446]]  # 120

plane wave coefficients: 16265
cutoff: 1000.0 eV

spin-components: 4  # (non-collinear spins)
bands: 42
valence electrons: 29.0
spin-degeneracy: 1
dtype: complex128

memory:
    wave functions: 2_636_460_288  # bytes  (219_705_024 per core)

parallelization:
    kpt:    12
    domain: 1
    band:   1

density:
  components: 4
  grid points: [ 32  32 112]
  charge: 0.0  # |e|

potential:
  grid points: [ 32  32 112]

species:
  Mn:
    name: Manganese
    id: 0d715a8018be061a6e9ea6f2d364ac92
    Z: 25.0
    valence: 15
    core: 10
    charge: 0.0
    file: /zhome/86/d/1666/PAW/gpaw-setups-0.9.20000/Mn.LDA.gz
    compensation charges: {type: gauss,
                           rc: 0.38,
                           lmax: 2}
    cutoffs: {filter: 2.14,
              core: 0.86}
    valence states:
      #              energy  rcut
      - 3s(2.00)   -85.387   1.275
      - 4s(2.00)    -5.282   1.275
      - 3p(6.00)   -54.493   1.281
      - 4p(0.00)    -1.471   1.281
      - 3d(5.00)    -7.009   1.138
      -  d          20.203   1.138
  
    # Using partial waves for Mn as LCAO basis

  I:
    name: Iodine
    id: b559721c0c096a7b4c8fc0e0f4de5cf4
    Z: 53.0
    valence: 7
    core: 46
    charge: 0.0
    file: /zhome/86/d/1666/PAW/gpaw-setups-0.9.20000/I.LDA.gz
    compensation charges: {type: gauss,
                           rc: 0.37,
                           lmax: 2}
    cutoffs: {filter: 2.06,
              core: 2.90}
    valence states:
      #              energy  rcut
      - 5s(2.00)   -17.626   1.164
      - 5p(5.00)    -7.241   1.164
      -  s           9.585   1.164
      -  p          19.970   1.164
      -  d           0.000   1.164
  
    # Using partial waves for I as LCAO basis

Reference energy: -418222.442431  # eV

eigensolver:
  name: 'Davidson'
  niter: 2
  converge_bands: 'occupied'
Density mixing:
  Method: sum
  Backend: pulay
  Linear mixing parameter: 0.05
  old densities: 5
  Damping of long wavelength oscillations: 100
occupation numbers:
  Fermi-Dirac:
    width: 0.1000  # eV
  

poisson solver:
  ecut: 8000.0  # eV

xc functional:
  name: None

convergence criteria:
- Maximum [total energy] change in last 3 cyles: 0.0005 eV / valence electron
- Maximum integral of absolute [dens]ity change: 0.0001 electrons / valence electron
- Maximum integral of absolute [eigenst]ate change: 4e-08 eV^2 / valence electron
maximum number of iterations: 333

#      iter     time        total  log10-change:
#                          energy   eigst   dens
# iter:   1 17:14:03   -14.971850                  +1.0,+0.0,+0.0
# iter:   2 17:14:44   -13.822038   -0.31  -1.10   +0.9,-0.0,+0.0
# iter:   3 17:15:25   -13.642900   -0.82  -1.38   +1.0,-0.0,-0.0
# iter:   4 17:16:05   -13.836543   -1.01  -1.54   +1.3,-0.0,-0.0
# iter:   5 17:16:46   -13.901237   -1.64  -1.64   +1.8,-0.0,-0.0
# iter:   6 17:17:27   -14.112707   -1.83  -1.62   +2.1,-0.0,-0.0
# iter:   7 17:18:07   -14.208614   -2.19  -1.49   +2.3,-0.0,-0.0
# iter:   8 17:18:48   -14.601145   -0.88  -1.45   +3.1,+0.0,-0.0
# iter:   9 17:19:29   -14.693822   -2.46  -1.97   +3.2,+0.0,-0.0
# iter:  10 17:20:10   -14.942160   -1.98  -1.79   +3.7,+0.0,-0.0
# iter:  11 17:20:50   -15.201607   -1.39  -2.07   +5.0,+0.0,-0.0
# iter:  12 17:21:31   -15.094912   -1.77  -1.74   +3.9,+0.0,-0.0
# iter:  13 17:22:11   -15.184749   -2.34  -1.99   +4.6,+0.0,+0.0
# iter:  14 17:22:52   -15.181473   -3.36  -2.72   +4.4,+0.0,+0.0
# iter:  15 17:23:33   -15.182180c  -3.86  -2.86   +4.4,+0.0,-0.0
# iter:  16 17:24:13   -15.184746c  -3.95  -2.92   +4.5,+0.0,-0.0
# iter:  17 17:24:54   -15.184829c  -4.18  -2.95   +4.5,+0.0,-0.0
# iter:  18 17:25:34   -15.184450c  -4.26  -2.97   +4.5,+0.0,-0.0
# iter:  19 17:26:14   -15.184984c  -4.47  -3.10   +4.5,+0.0,-0.0
# iter:  20 17:26:55   -15.184976c  -4.77  -3.36   +4.5,+0.0,-0.0
# iter:  21 17:27:35   -15.184853c  -4.86  -3.43   +4.5,+0.0,-0.0
# iter:  22 17:28:15   -15.184822c  -5.12  -3.63   +4.5,+0.0,+0.0
# iter:  23 17:28:56   -15.184811c  -5.35  -3.65   +4.5,+0.0,-0.0
# iter:  24 17:29:36   -15.184826c  -5.52  -3.70   +4.5,+0.0,-0.0
# iter:  25 17:30:16   -15.184939c  -5.43  -3.76   +4.5,+0.0,-0.0
# iter:  26 17:30:57   -15.184965c  -5.74  -3.90   +4.5,+0.0,+0.0
# iter:  27 17:31:37   -15.184972c  -5.91  -4.07c  +4.5,+0.0,+0.0
# iter:  28 17:32:17   -15.184965c  -5.87  -4.14c  +4.5,+0.0,+0.0
# iter:  29 17:32:58   -15.184965c  -6.23  -4.32c  +4.5,+0.0,+0.0
# iter:  30 17:33:38   -15.184969c  -6.31  -4.38c  +4.5,+0.0,+0.0
# iter:  31 17:34:18   -15.184967c  -6.33  -4.52c  +4.5,+0.0,+0.0
# iter:  32 17:34:58   -15.184966c  -6.66  -4.99c  +4.5,+0.0,+0.0
# iter:  33 17:35:39   -15.184967c  -6.79  -4.95c  +4.5,+0.0,+0.0
# iter:  34 17:36:19   -15.184965c  -6.74  -5.00c  +4.5,+0.0,+0.0
# iter:  35 17:37:00   -15.184966c  -7.06  -4.58c  +4.5,+0.0,+0.0
# iter:  36 17:37:40   -15.184966c  -7.18  -4.63c  +4.5,+0.0,+0.0
# iter:  37 17:38:20   -15.184966c  -7.30  -4.68c  +4.5,+0.0,+0.0
# iter:  38 17:39:00   -15.184968c  -7.22  -4.63c  +4.5,+0.0,+0.0
# iter:  39 17:39:41   -15.184969c  -7.40c -4.92c  +4.5,+0.0,+0.0
scf_steps: 39
energies:  # eV
  coulomb:         -17.520227
  zero:              0.089805
  xc:              -18.412047
  external:          0.000000
  kinetic:          20.658799
  spinorbit:         0.000000
  entropy:          -0.002599
  total:           -15.186269
  extrapolated:    -15.184969

dipole moment: [-5.191967, -9.436422, -11.119963]  # |e|*Ang

total magnetic moment: [4.543813, 0.010621, 0.000000]

local magnetic moments: [
  [ 4.263821, -0.000000,  0.000000],  # Mn 0
  [-0.003448, -0.042353,  0.000000],  # I  1
  [ 0.036291, -0.022105,  0.000000]]  # I  2


Fermi level: -1.061 eV

kpt = [-0.455, -0.455, 0.000], weight = 0.008:
  Band      eig [eV]   occ [0-1]
     0       -81.944       1.000
   ...
    21        -3.966       1.000
    22        -3.841       1.000
    23        -3.733       1.000
    24        -3.648       1.000
    25        -3.329       1.000
    26        -3.279       1.000
    27        -1.929       1.000
    28        -1.766       0.999
    29        -0.379       0.001
    30        -0.137       0.000
    31        -0.099       0.000
    32         0.658       0.000
    33         0.811       0.000
    34         1.883       0.000
    35         2.866       0.000
    36         3.490       0.000
   ...
    41         5.362       0.000

kpt = [-0.455, -0.364, 0.000], weight = 0.008:
  Band      eig [eV]   occ [0-1]
     0       -81.944       1.000
   ...
    21        -4.008       1.000
    22        -3.767       1.000
    23        -3.707       1.000
    24        -3.544       1.000
    25        -3.309       1.000
    26        -3.219       1.000
    27        -2.018       1.000
    28        -1.728       0.999
    29        -0.359       0.001
    30        -0.144       0.000
    31        -0.073       0.000
    32         0.654       0.000
    33         0.766       0.000
    34         1.857       0.000
    35         2.815       0.000
    36         3.312       0.000
   ...
    41         5.413       0.000

kpt = [-0.455, -0.273, 0.000], weight = 0.008:
  Band      eig [eV]   occ [0-1]
     0       -81.944       1.000
   ...
    21        -3.994       1.000
    22        -3.700       1.000
    23        -3.673       1.000
    24        -3.439       1.000
    25        -3.272       1.000
    26        -3.105       1.000
    27        -2.100       1.000
    28        -1.748       0.999
    29        -0.271       0.000
    30        -0.148       0.000
    31        -0.081       0.000
    32         0.545       0.000
    33         0.744       0.000
    34         2.219       0.000
    35         2.887       0.000
    36         3.669       0.000
   ...
    41         5.233       0.000
(only showing first 3 out of 121 k-points)

Gap: 0.879 eV
Transition (v -> c):
  (s=0, k=60, n=28, [0.00, 0.00, 0.00]) -> (s=0, k=5, n=29, [-0.45, 0.00, 0.00])
# Writing to gsq-07.gpw (mode='')

