#  __  _  _
# | _ |_)|_||  |
# |__||  | ||/\| - 24.1.0

User:   s194113@n-62-28-19
Date:   Mon Apr 22 18:05:54 2024
Arch:   x86_64
Pid:    27945
CWD:    /zhome/87/8/147075/10302/10302_NM/MnI2/E_con
Python: 3.8.5
gpaw:   /zhome/87/8/147075/venv-name/gpaw/gpaw (10808453a8)
_gpaw:  /zhome/87/8/147075/venv-name/gpaw/
        _gpaw.cpython-38-x86_64-linux-gnu.so (10808453a8)
ase:    /zhome/87/8/147075/venv-name/ase/ase (version 3.23.0b1-c36115a2db)
numpy:  /zhome/87/8/147075/venv-name/lib/python3.8/site-packages/numpy (version 1.24.4)
scipy:  /zhome/87/8/147075/venv-name/lib/python3.8/site-packages/scipy (version 1.10.1)
libxc:  4.3.4
units:  Angstrom and eV
cores: 12
OpenMP: False
OMP_NUM_THREADS: 1

---
input parameters:
  kpts: 
    density: 6.0
    gamma: True
  magmoms: [[1, 0, 0], [0, 0, 0], [0, 0, 0]]
  mixer: 
    backend: 'pulay'
    beta: 0.05
    method: 'sum'
    nmaxold: 5
    weight: 100
  mode: 
    name: 'pw'
    ecut: 1000
    qspiral: array([0.45, 0.  , 0.  ])
  parallel: 
    kpt: None
    domain: 1
    band: 1
    order: 'kdb'
    stridebands: False
    augment_grids: False
    sl_auto: False
    sl_default: None
    sl_diagonalize: None
    sl_inverse_cholesky: None
    sl_lcao: None
    sl_lrtddft: None
    use_elpa: False
    elpasolver: '2stage'
    buffer_size: None
    gpu: False
  symmetry: 
    point_group: False
    time_reversal: False
  xc: 
    name: 'LDA'

#                        
#                        
#                        
#                        
#                        
#              I         
#                        
#        Mn              
#          I             
#                        
#                        
#                        
#                        
#                        

atoms: [  # symbols, positions [Ang] and initial magnetic moments
  [ Mn, [   0.000000,    0.000000,    7.513573], [ 1.000,  0.000,  0.000]], # 0
  [  I, [   2.083000,    1.202621,    9.027147], [ 0.000,  0.000,  0.000]], # 1
  [  I, [   0.000000,    2.405241,    6.000000], [ 0.000,  0.000,  0.000]]] # 2

cell: [  # Ang
#     x            y            z
  [   4.166000,    0.000000,    0.000000],
  [  -2.083000,    3.607862,    0.000000],
  [   0.000000,   -0.000000,   15.027147]]

periodic: [True      , True      , False     ]
lengths:  [  4.166000,   4.166000,  15.027147]  # Ang
angles:   [ 90.000000,  90.000000, 120.000000]

symmetry:
  number of symmetries: 1
  rotations: [
    [[ 1,  0,  0], [ 0,  1,  0], [ 0,  0,  1]]]

bz sampling:
  number of bz points: 121
  number of ibz points: 121
  monkhorst-pack size: [11, 11, 1]
  monkhorst-pack shift: [0, 0, 0]
  points and weights: [
    [[ -0.45454545,  -0.45454545,   0.00000000], 0.00826446],  # 0
    [[ -0.45454545,  -0.36363636,   0.00000000], 0.00826446],  # 1
    [[ -0.45454545,  -0.27272727,   0.00000000], 0.00826446],  # 2
    [[ -0.45454545,  -0.18181818,   0.00000000], 0.00826446],  # 3
    [[ -0.45454545,  -0.09090909,   0.00000000], 0.00826446],  # 4
    [[ -0.45454545,   0.00000000,   0.00000000], 0.00826446],  # 5
    [[ -0.45454545,   0.09090909,   0.00000000], 0.00826446],  # 6
    [[ -0.45454545,   0.18181818,   0.00000000], 0.00826446],  # 7
    [[ -0.45454545,   0.27272727,   0.00000000], 0.00826446],  # 8
    [[ -0.45454545,   0.36363636,   0.00000000], 0.00826446],  # 9
    # ...
    [[  0.45454545,   0.45454545,   0.00000000], 0.00826446]]  # 120

plane wave coefficients: 16265
cutoff: 1000.0 eV

spin-components: 4  # (non-collinear spins)
bands: 42
valence electrons: 29.0
spin-degeneracy: 1
dtype: complex128

memory:
    wave functions: 2_636_460_288  # bytes  (219_705_024 per core)

parallelization:
    kpt:    12
    domain: 1
    band:   1

density:
  components: 4
  grid points: [ 32  32 112]
  charge: 0.0  # |e|

potential:
  grid points: [ 32  32 112]

species:
  Mn:
    name: Manganese
    id: 0d715a8018be061a6e9ea6f2d364ac92
    Z: 25.0
    valence: 15
    core: 10
    charge: 0.0
    file: /zhome/86/d/1666/PAW/gpaw-setups-0.9.20000/Mn.LDA.gz
    compensation charges: {type: gauss,
                           rc: 0.38,
                           lmax: 2}
    cutoffs: {filter: 2.14,
              core: 0.86}
    valence states:
      #              energy  rcut
      - 3s(2.00)   -85.387   1.275
      - 4s(2.00)    -5.282   1.275
      - 3p(6.00)   -54.493   1.281
      - 4p(0.00)    -1.471   1.281
      - 3d(5.00)    -7.009   1.138
      -  d          20.203   1.138
  
    # Using partial waves for Mn as LCAO basis

  I:
    name: Iodine
    id: b559721c0c096a7b4c8fc0e0f4de5cf4
    Z: 53.0
    valence: 7
    core: 46
    charge: 0.0
    file: /zhome/86/d/1666/PAW/gpaw-setups-0.9.20000/I.LDA.gz
    compensation charges: {type: gauss,
                           rc: 0.37,
                           lmax: 2}
    cutoffs: {filter: 2.06,
              core: 2.90}
    valence states:
      #              energy  rcut
      - 5s(2.00)   -17.626   1.164
      - 5p(5.00)    -7.241   1.164
      -  s           9.585   1.164
      -  p          19.970   1.164
      -  d           0.000   1.164
  
    # Using partial waves for I as LCAO basis

Reference energy: -418222.442431  # eV

eigensolver:
  name: 'Davidson'
  niter: 2
  converge_bands: 'occupied'
Density mixing:
  Method: sum
  Backend: pulay
  Linear mixing parameter: 0.05
  old densities: 5
  Damping of long wavelength oscillations: 100
occupation numbers:
  Fermi-Dirac:
    width: 0.1000  # eV
  

poisson solver:
  ecut: 8000.0  # eV

xc functional:
  name: None

convergence criteria:
- Maximum [total energy] change in last 3 cyles: 0.0005 eV / valence electron
- Maximum integral of absolute [dens]ity change: 0.0001 electrons / valence electron
- Maximum integral of absolute [eigenst]ate change: 4e-08 eV^2 / valence electron
maximum number of iterations: 333

#      iter     time        total  log10-change:
#                          energy   eigst   dens
# iter:   1 18:06:56   -14.846169                  +1.0,+0.0,+0.0
# iter:   2 18:07:36   -13.818337   -0.19  -1.10   +0.9,-0.0,-0.0
# iter:   3 18:08:16   -13.655849   -0.75  -1.38   +1.1,-0.0,+0.0
# iter:   4 18:08:57   -13.859311   -0.98  -1.55   +1.4,-0.0,+0.0
# iter:   5 18:09:37   -13.933570   -1.56  -1.65   +1.8,-0.0,-0.0
# iter:   6 18:10:17   -14.161075   -1.73  -1.62   +2.0,-0.0,+0.0
# iter:   7 18:10:57   -14.248245   -2.09  -1.49   +2.2,-0.0,-0.0
# iter:   8 18:11:38   -14.466861   -0.92  -1.45   +2.8,+0.0,-0.0
# iter:   9 18:12:18   -14.510896   -2.26  -1.95   +2.7,+0.0,-0.0
# iter:  10 18:12:58   -14.783795   -1.82  -1.67   +3.2,+0.0,-0.0
# iter:  11 18:13:38   -15.223059   -1.34  -1.99   +4.5,+0.0,-0.0
# iter:  12 18:14:18   -15.058828   -1.82  -1.79   +3.7,+0.0,-0.0
# iter:  13 18:14:59   -15.189852   -2.16  -1.92   +4.4,+0.0,-0.0
# iter:  14 18:15:39   -15.183514   -2.80  -2.48   +4.3,+0.0,-0.0
# iter:  15 18:16:19   -15.172475   -3.67  -2.69   +4.2,+0.0,-0.0
# iter:  16 18:17:00   -15.189263   -3.22  -2.53   +4.4,+0.0,+0.0
# iter:  17 18:17:40   -15.187657   -3.59  -2.93   +4.4,+0.0,-0.0
# iter:  18 18:18:20   -15.187708c  -4.23  -3.38   +4.4,+0.0,+0.0
# iter:  19 18:19:00   -15.187700c  -4.36  -3.43   +4.4,+0.0,-0.0
# iter:  20 18:19:41   -15.187835c  -4.17  -3.48   +4.4,+0.0,-0.0
# iter:  21 18:20:21   -15.187688c  -4.71  -3.58   +4.4,+0.0,+0.0
# iter:  22 18:21:01   -15.187677c  -4.90  -3.76   +4.4,+0.0,+0.0
# iter:  23 18:21:41   -15.187750c  -5.02  -3.84   +4.4,+0.0,+0.0
# iter:  24 18:22:21   -15.187725c  -5.18  -4.06c  +4.4,+0.0,+0.0
# iter:  25 18:23:01   -15.187717c  -5.36  -4.30c  +4.4,+0.0,+0.0
# iter:  26 18:23:41   -15.187723c  -5.50  -4.38c  +4.4,+0.0,+0.0
# iter:  27 18:24:21   -15.187715c  -5.60  -4.46c  +4.4,+0.0,+0.0
# iter:  28 18:25:02   -15.187719c  -5.77  -4.56c  +4.4,+0.0,+0.0
# iter:  29 18:25:42   -15.187719c  -5.91  -4.89c  +4.4,+0.0,+0.0
# iter:  30 18:26:22   -15.187717c  -6.03  -4.94c  +4.4,+0.0,-0.0
# iter:  31 18:27:02   -15.187718c  -6.15  -4.97c  +4.4,+0.0,-0.0
# iter:  32 18:27:42   -15.187719c  -6.28  -5.21c  +4.4,+0.0,+0.0
# iter:  33 18:28:22   -15.187719c  -6.40  -5.24c  +4.4,+0.0,+0.0
# iter:  34 18:29:02   -15.187720c  -6.53  -5.39c  +4.4,+0.0,+0.0
# iter:  35 18:29:42   -15.187719c  -6.66  -5.40c  +4.4,+0.0,+0.0
# iter:  36 18:30:22   -15.187719c  -6.78  -5.51c  +4.4,+0.0,+0.0
# iter:  37 18:31:02   -15.187720c  -6.90  -5.55c  +4.4,+0.0,-0.0
# iter:  38 18:31:42   -15.187720c  -7.04  -5.61c  +4.4,+0.0,-0.0
# iter:  39 18:32:22   -15.187720c  -7.16  -5.86c  +4.4,+0.0,+0.0
# iter:  40 18:33:02   -15.187720c  -7.27  -5.93c  +4.4,+0.0,-0.0
# iter:  41 18:33:42   -15.187720c  -7.39  -5.86c  +4.4,+0.0,+0.0
# iter:  42 18:34:22   -15.187720c  -7.51c -6.25c  +4.4,+0.0,+0.0
scf_steps: 42
energies:  # eV
  coulomb:         -17.425169
  zero:              0.090286
  xc:              -18.394594
  external:          0.000000
  kinetic:          20.543130
  spinorbit:         0.000000
  entropy:          -0.002748
  total:           -15.189094
  extrapolated:    -15.187720

dipole moment: [-4.883050, -9.099884, -9.800034]  # |e|*Ang

total magnetic moment: [4.380171, 0.003927, 0.000000]

local magnetic moments: [
  [ 4.256647, -0.000000,  0.000000],  # Mn 0
  [-0.021304, -0.015570,  0.000000],  # I  1
  [ 0.025073, -0.008224, -0.000000]]  # I  2


Fermi level: -1.043 eV

kpt = [-0.455, -0.455, 0.000], weight = 0.008:
  Band      eig [eV]   occ [0-1]
     0       -81.931       1.000
   ...
    21        -3.956       1.000
    22        -3.847       1.000
    23        -3.726       1.000
    24        -3.622       1.000
    25        -3.291       1.000
    26        -3.205       1.000
    27        -1.983       1.000
    28        -1.776       0.999
    29        -0.296       0.001
    30        -0.147       0.000
    31        -0.103       0.000
    32         0.609       0.000
    33         0.799       0.000
    34         2.116       0.000
    35         2.866       0.000
    36         3.845       0.000
   ...
    41         5.273       0.000

kpt = [-0.455, -0.364, 0.000], weight = 0.008:
  Band      eig [eV]   occ [0-1]
     0       -81.931       1.000
   ...
    21        -3.960       1.000
    22        -3.728       1.000
    23        -3.678       1.000
    24        -3.526       1.000
    25        -3.216       1.000
    26        -3.159       1.000
    27        -2.064       1.000
    28        -1.700       0.999
    29        -0.314       0.001
    30        -0.158       0.000
    31        -0.074       0.000
    32         0.600       0.000
    33         0.787       0.000
    34         1.973       0.000
    35         2.737       0.000
    36         3.421       0.000
   ...
    41         5.302       0.000

kpt = [-0.455, -0.273, 0.000], weight = 0.008:
  Band      eig [eV]   occ [0-1]
     0       -81.931       1.000
   ...
    21        -3.824       1.000
    22        -3.672       1.000
    23        -3.585       1.000
    24        -3.384       1.000
    25        -3.167       1.000
    26        -3.035       1.000
    27        -2.171       1.000
    28        -1.655       0.998
    29        -0.297       0.001
    30        -0.122       0.000
    31        -0.094       0.000
    32         0.500       0.000
    33         0.790       0.000
    34         2.172       0.000
    35         2.830       0.000
    36         3.460       0.000
   ...
    41         5.286       0.000
(only showing first 3 out of 121 k-points)

Gap: 0.935 eV
Transition (v -> c):
  (s=0, k=60, n=28, [0.00, 0.00, 0.00]) -> (s=0, k=5, n=29, [-0.45, 0.00, 0.00])
# Writing to gsq-09.gpw (mode='')

---

timing:  # [seconds]
  Total: 1708.456  # ━━━━━━━━━━━━━━━━━━━━━━━━━━━━━━━━━━━━━━━━━━━━━━━━━━━━━━━━
  Init:    25.593  # ━
  SCF:   1682.322  # ━━━━━━━━━━━━━━━━━━━━━━━━━━━━━━━━━━━━━━━━━━━━━━━━━━━━━━━

Max RSS: 1335.734  # MiB
