#  __  _  _
# | _ |_)|_||  |
# |__||  | ||/\| - 24.1.0

User:   s194113@n-62-28-19
Date:   Mon Apr 22 14:39:38 2024
Arch:   x86_64
Pid:    27945
CWD:    /zhome/87/8/147075/10302/10302_NM/MnI2/E_con
Python: 3.8.5
gpaw:   /zhome/87/8/147075/venv-name/gpaw/gpaw (10808453a8)
_gpaw:  /zhome/87/8/147075/venv-name/gpaw/
        _gpaw.cpython-38-x86_64-linux-gnu.so (10808453a8)
ase:    /zhome/87/8/147075/venv-name/ase/ase (version 3.23.0b1-c36115a2db)
numpy:  /zhome/87/8/147075/venv-name/lib/python3.8/site-packages/numpy (version 1.24.4)
scipy:  /zhome/87/8/147075/venv-name/lib/python3.8/site-packages/scipy (version 1.10.1)
libxc:  4.3.4
units:  Angstrom and eV
cores: 12
OpenMP: False
OMP_NUM_THREADS: 1

---
input parameters:
  kpts: 
    density: 6.0
    gamma: True
  magmoms: [[1, 0, 0], [0, 0, 0], [0, 0, 0]]
  mixer: 
    backend: 'pulay'
    beta: 0.05
    method: 'sum'
    nmaxold: 5
    weight: 100
  mode: 
    name: 'pw'
    ecut: 1000
    qspiral: array([0.05, 0.  , 0.  ])
  parallel: 
    kpt: None
    domain: 1
    band: 1
    order: 'kdb'
    stridebands: False
    augment_grids: False
    sl_auto: False
    sl_default: None
    sl_diagonalize: None
    sl_inverse_cholesky: None
    sl_lcao: None
    sl_lrtddft: None
    use_elpa: False
    elpasolver: '2stage'
    buffer_size: None
    gpu: False
  symmetry: 
    point_group: False
    time_reversal: False
  xc: 
    name: 'LDA'

#                        
#                        
#                        
#                        
#                        
#              I         
#                        
#        Mn              
#          I             
#                        
#                        
#                        
#                        
#                        

atoms: [  # symbols, positions [Ang] and initial magnetic moments
  [ Mn, [   0.000000,    0.000000,    7.513573], [ 1.000,  0.000,  0.000]], # 0
  [  I, [   2.083000,    1.202621,    9.027147], [ 0.000,  0.000,  0.000]], # 1
  [  I, [   0.000000,    2.405241,    6.000000], [ 0.000,  0.000,  0.000]]] # 2

cell: [  # Ang
#     x            y            z
  [   4.166000,    0.000000,    0.000000],
  [  -2.083000,    3.607862,    0.000000],
  [   0.000000,   -0.000000,   15.027147]]

periodic: [True      , True      , False     ]
lengths:  [  4.166000,   4.166000,  15.027147]  # Ang
angles:   [ 90.000000,  90.000000, 120.000000]

symmetry:
  number of symmetries: 1
  rotations: [
    [[ 1,  0,  0], [ 0,  1,  0], [ 0,  0,  1]]]

bz sampling:
  number of bz points: 121
  number of ibz points: 121
  monkhorst-pack size: [11, 11, 1]
  monkhorst-pack shift: [0, 0, 0]
  points and weights: [
    [[ -0.45454545,  -0.45454545,   0.00000000], 0.00826446],  # 0
    [[ -0.45454545,  -0.36363636,   0.00000000], 0.00826446],  # 1
    [[ -0.45454545,  -0.27272727,   0.00000000], 0.00826446],  # 2
    [[ -0.45454545,  -0.18181818,   0.00000000], 0.00826446],  # 3
    [[ -0.45454545,  -0.09090909,   0.00000000], 0.00826446],  # 4
    [[ -0.45454545,   0.00000000,   0.00000000], 0.00826446],  # 5
    [[ -0.45454545,   0.09090909,   0.00000000], 0.00826446],  # 6
    [[ -0.45454545,   0.18181818,   0.00000000], 0.00826446],  # 7
    [[ -0.45454545,   0.27272727,   0.00000000], 0.00826446],  # 8
    [[ -0.45454545,   0.36363636,   0.00000000], 0.00826446],  # 9
    # ...
    [[  0.45454545,   0.45454545,   0.00000000], 0.00826446]]  # 120

plane wave coefficients: 16265
cutoff: 1000.0 eV

spin-components: 4  # (non-collinear spins)
bands: 42
valence electrons: 29.0
spin-degeneracy: 1
dtype: complex128

memory:
    wave functions: 2_636_460_288  # bytes  (219_705_024 per core)

parallelization:
    kpt:    12
    domain: 1
    band:   1

density:
  components: 4
  grid points: [ 32  32 112]
  charge: 0.0  # |e|

potential:
  grid points: [ 32  32 112]

species:
  Mn:
    name: Manganese
    id: 0d715a8018be061a6e9ea6f2d364ac92
    Z: 25.0
    valence: 15
    core: 10
    charge: 0.0
    file: /zhome/86/d/1666/PAW/gpaw-setups-0.9.20000/Mn.LDA.gz
    compensation charges: {type: gauss,
                           rc: 0.38,
                           lmax: 2}
    cutoffs: {filter: 2.14,
              core: 0.86}
    valence states:
      #              energy  rcut
      - 3s(2.00)   -85.387   1.275
      - 4s(2.00)    -5.282   1.275
      - 3p(6.00)   -54.493   1.281
      - 4p(0.00)    -1.471   1.281
      - 3d(5.00)    -7.009   1.138
      -  d          20.203   1.138
  
    # Using partial waves for Mn as LCAO basis

  I:
    name: Iodine
    id: b559721c0c096a7b4c8fc0e0f4de5cf4
    Z: 53.0
    valence: 7
    core: 46
    charge: 0.0
    file: /zhome/86/d/1666/PAW/gpaw-setups-0.9.20000/I.LDA.gz
    compensation charges: {type: gauss,
                           rc: 0.37,
                           lmax: 2}
    cutoffs: {filter: 2.06,
              core: 2.90}
    valence states:
      #              energy  rcut
      - 5s(2.00)   -17.626   1.164
      - 5p(5.00)    -7.241   1.164
      -  s           9.585   1.164
      -  p          19.970   1.164
      -  d           0.000   1.164
  
    # Using partial waves for I as LCAO basis

Reference energy: -418222.442431  # eV

eigensolver:
  name: 'Davidson'
  niter: 2
  converge_bands: 'occupied'
Density mixing:
  Method: sum
  Backend: pulay
  Linear mixing parameter: 0.05
  old densities: 5
  Damping of long wavelength oscillations: 100
occupation numbers:
  Fermi-Dirac:
    width: 0.1000  # eV
  

poisson solver:
  ecut: 8000.0  # eV

xc functional:
  name: None

convergence criteria:
- Maximum [total energy] change in last 3 cyles: 0.0005 eV / valence electron
- Maximum integral of absolute [dens]ity change: 0.0001 electrons / valence electron
- Maximum integral of absolute [eigenst]ate change: 4e-08 eV^2 / valence electron
maximum number of iterations: 333

#      iter     time        total  log10-change:
#                          energy   eigst   dens
# iter:   1 14:40:40   -15.164874                  +1.0,+0.0,+0.0
# iter:   2 14:41:20   -13.824182   -0.55  -1.10   +0.9,-0.0,+0.0
# iter:   3 14:42:00   -13.614984   -0.91  -1.37   +1.0,-0.0,-0.0
# iter:   4 14:42:40   -13.759509   -1.06  -1.53   +1.3,-0.0,+0.0
# iter:   5 14:43:20   -13.786410   -1.75  -1.66   +1.8,-0.0,+0.0
# iter:   6 14:44:00   -13.872571   -2.03  -1.66   +2.1,-0.0,+0.0
# iter:   7 14:44:41   -14.024698   -1.76  -1.57   +2.5,-0.0,+0.0
# iter:   8 14:45:21   -14.362461   -1.55  -1.59   +3.2,+0.0,-0.0
# iter:   9 14:46:01   -13.896991   -2.22  -1.69   +2.9,-0.0,-0.0
# iter:  10 14:46:41   -14.873844   -1.71  -1.58   +3.8,+0.0,+0.0
# iter:  11 14:47:22   -15.054227   -1.63  -1.80   +4.5,+0.0,-0.0
# iter:  12 14:48:02   -15.091754   -2.55  -2.06   +4.6,+0.0,+0.0
# iter:  13 14:48:42   -15.258880   -1.48  -2.05   +5.2,+0.0,+0.0
# iter:  14 14:49:23   -15.154301   -2.03  -1.78   +4.8,+0.0,+0.0
# iter:  15 14:50:03   -15.157668   -2.20  -2.30   +4.7,+0.0,+0.0
# iter:  16 14:50:43   -15.146817c  -2.59  -1.94   +4.7,+0.0,+0.0
# iter:  17 14:51:23   -15.146321c  -3.44  -2.29   +4.8,+0.0,+0.0
# iter:  18 14:52:03   -15.137202c  -3.52  -2.31   +4.8,+0.0,+0.0
# iter:  19 14:52:43   -15.204754   -2.26  -2.35   +4.9,+0.0,+0.0
# iter:  20 14:53:23   -15.137327   -2.47  -2.14   +4.8,+0.0,+0.0
# iter:  21 14:54:03   -15.139367   -3.43  -2.64   +4.8,+0.0,-0.0
# iter:  22 14:54:43   -15.163024   -3.20  -2.68   +5.0,+0.0,-0.0
# iter:  23 14:55:23   -15.155416   -3.66  -2.57   +5.0,+0.0,-0.0
# iter:  24 14:56:02   -15.151581c  -3.25  -2.75   +5.0,+0.0,-0.0
# iter:  25 14:56:42   -15.158051c  -3.11  -2.97   +5.0,+0.0,-0.0
# iter:  26 14:57:22   -15.152893c  -3.76  -2.71   +5.0,+0.0,+0.0
# iter:  27 14:58:03   -15.151762c  -3.80  -3.04   +5.0,+0.0,-0.0
# iter:  28 14:58:43   -15.151885c  -5.17  -3.58   +5.0,+0.0,+0.0
# iter:  29 14:59:23   -15.151742c  -5.16  -3.52   +5.0,+0.0,+0.0
# iter:  30 15:00:02   -15.151954c  -4.25  -3.79   +5.0,+0.0,+0.0
# iter:  31 15:00:42   -15.151688c  -4.63  -3.34   +5.0,+0.0,+0.0
# iter:  32 15:01:22   -15.151721c  -5.51  -3.86   +5.0,+0.0,+0.0
# iter:  33 15:02:02   -15.151746c  -6.13  -3.95   +5.0,+0.0,+0.0
# iter:  34 15:02:42   -15.151754c  -6.51  -3.96   +5.0,+0.0,+0.0
# iter:  35 15:03:22   -15.151813c  -6.30  -3.99   +5.0,+0.0,+0.0
# iter:  36 15:04:01   -15.151800c  -6.47  -4.31c  +5.0,+0.0,+0.0
# iter:  37 15:04:42   -15.151804c  -7.08  -4.39c  +5.0,+0.0,+0.0
# iter:  38 15:05:21   -15.151805c  -7.28  -4.50c  +5.0,+0.0,+0.0
# iter:  39 15:06:01   -15.151801c  -7.56c -4.64c  +5.0,+0.0,+0.0
scf_steps: 39
energies:  # eV
  coulomb:         -18.445391
  zero:              0.086487
  xc:              -18.570506
  external:          0.000000
  kinetic:          21.780054
  spinorbit:         0.000000
  entropy:          -0.004891
  total:           -15.154247
  extrapolated:    -15.151801

dipole moment: [-5.950823, -10.357487, -14.475650]  # |e|*Ang

total magnetic moment: [4.978474, 0.004806, 0.000000]

local magnetic moments: [
  [ 4.314227,  0.000000,  0.000000],  # Mn 0
  [ 0.092343, -0.019655,  0.000000],  # I  1
  [ 0.093897, -0.009842,  0.000000]]  # I  2


Fermi level: -1.091 eV

kpt = [-0.455, -0.455, 0.000], weight = 0.008:
  Band      eig [eV]   occ [0-1]
     0       -82.026       1.000
   ...
    21        -3.902       1.000
    22        -3.805       1.000
    23        -3.771       1.000
    24        -3.671       1.000
    25        -3.644       1.000
    26        -3.507       1.000
    27        -1.789       0.999
    28        -1.734       0.998
    29        -0.573       0.006
    30        -0.162       0.000
    31        -0.124       0.000
    32         0.774       0.000
    33         0.879       0.000
    34         1.481       0.000
    35         2.410       0.000
    36         3.223       0.000
   ...
    41         4.944       0.000

kpt = [-0.455, -0.364, 0.000], weight = 0.008:
  Band      eig [eV]   occ [0-1]
     0       -82.026       1.000
   ...
    21        -4.008       1.000
    22        -3.897       1.000
    23        -3.719       1.000
    24        -3.675       1.000
    25        -3.479       1.000
    26        -3.393       1.000
    27        -1.999       1.000
    28        -1.815       0.999
    29        -0.390       0.001
    30        -0.151       0.000
    31        -0.106       0.000
    32         0.616       0.000
    33         0.811       0.000
    34         1.980       0.000
    35         2.843       0.000
    36         3.944       0.000
   ...
    41         5.050       0.000

kpt = [-0.455, -0.273, 0.000], weight = 0.008:
  Band      eig [eV]   occ [0-1]
     0       -82.026       1.000
   ...
    21        -4.116       1.000
    22        -3.902       1.000
    23        -3.724       1.000
    24        -3.682       1.000
    25        -3.404       1.000
    26        -3.335       1.000
    27        -2.123       1.000
    28        -1.835       0.999
    29        -0.320       0.000
    30        -0.133       0.000
    31        -0.095       0.000
    32         0.546       0.000
    33         0.770       0.000
    34         2.297       0.000
    35         3.143       0.000
    36         3.937       0.000
   ...
    41         5.336       0.000
(only showing first 3 out of 121 k-points)

Gap: 0.764 eV
Transition (v -> c):
  (s=0, k=60, n=28, [0.00, 0.00, 0.00]) -> (s=0, k=5, n=29, [-0.45, 0.00, 0.00])
# Writing to gsq-01.gpw (mode='')

---

timing:  # [seconds]
  Total: 1583.329  # ━━━━━━━━━━━━━━━━━━━━━━━━━━━━━━━━━━━━━━━━━━━━━━━━━━━━━━━━
  Init:    25.784  # ━
  SCF:   1557.000  # ━━━━━━━━━━━━━━━━━━━━━━━━━━━━━━━━━━━━━━━━━━━━━━━━━━━━━━━

Max RSS: 767.938  # MiB
