#  __  _  _
# | _ |_)|_||  |
# |__||  | ||/\| - 24.1.0

User:   s194113@n-62-28-28
Date:   Mon Apr 22 12:40:01 2024
Arch:   x86_64
Pid:    22580
CWD:    /zhome/87/8/147075/10302/10302_NM/MnI2/E_con
Python: 3.8.5
gpaw:   /zhome/87/8/147075/venv-name/gpaw/gpaw (10808453a8)
_gpaw:  /zhome/87/8/147075/venv-name/gpaw/
        _gpaw.cpython-38-x86_64-linux-gnu.so (10808453a8)
ase:    /zhome/87/8/147075/venv-name/ase/ase (version 3.23.0b1-c36115a2db)
numpy:  /zhome/87/8/147075/venv-name/lib/python3.8/site-packages/numpy (version 1.24.4)
scipy:  /zhome/87/8/147075/venv-name/lib/python3.8/site-packages/scipy (version 1.10.1)
libxc:  4.3.4
units:  Angstrom and eV
cores: 12
OpenMP: False
OMP_NUM_THREADS: 1

---
input parameters:
  kpts: 
    density: 6.0
    gamma: True
  magmoms: [[1, 0, 0], [0, 0, 0], [0, 0, 0]]
  mixer: 
    backend: 'pulay'
    beta: 0.05
    method: 'sum'
    nmaxold: 5
    weight: 100
  mode: 
    name: 'pw'
    ecut: 100
    qspiral: array([0.15, 0.  , 0.  ])
  parallel: 
    kpt: None
    domain: 1
    band: 1
    order: 'kdb'
    stridebands: False
    augment_grids: False
    sl_auto: False
    sl_default: None
    sl_diagonalize: None
    sl_inverse_cholesky: None
    sl_lcao: None
    sl_lrtddft: None
    use_elpa: False
    elpasolver: '2stage'
    buffer_size: None
    gpu: False
  symmetry: 
    point_group: False
    time_reversal: False
  xc: 
    name: 'LDA'

#                        
#                        
#                        
#                        
#                        
#              I         
#                        
#        Mn              
#          I             
#                        
#                        
#                        
#                        
#                        

atoms: [  # symbols, positions [Ang] and initial magnetic moments
  [ Mn, [   0.000000,    0.000000,    7.513573], [ 1.000,  0.000,  0.000]], # 0
  [  I, [   2.083000,    1.202621,    9.027147], [ 0.000,  0.000,  0.000]], # 1
  [  I, [   0.000000,    2.405241,    6.000000], [ 0.000,  0.000,  0.000]]] # 2

cell: [  # Ang
#     x            y            z
  [   4.166000,    0.000000,    0.000000],
  [  -2.083000,    3.607862,    0.000000],
  [   0.000000,   -0.000000,   15.027147]]

periodic: [True      , True      , False     ]
lengths:  [  4.166000,   4.166000,  15.027147]  # Ang
angles:   [ 90.000000,  90.000000, 120.000000]

symmetry:
  number of symmetries: 1
  rotations: [
    [[ 1,  0,  0], [ 0,  1,  0], [ 0,  0,  1]]]

bz sampling:
  number of bz points: 121
  number of ibz points: 121
  monkhorst-pack size: [11, 11, 1]
  monkhorst-pack shift: [0, 0, 0]
  points and weights: [
    [[ -0.45454545,  -0.45454545,   0.00000000], 0.00826446],  # 0
    [[ -0.45454545,  -0.36363636,   0.00000000], 0.00826446],  # 1
    [[ -0.45454545,  -0.27272727,   0.00000000], 0.00826446],  # 2
    [[ -0.45454545,  -0.18181818,   0.00000000], 0.00826446],  # 3
    [[ -0.45454545,  -0.09090909,   0.00000000], 0.00826446],  # 4
    [[ -0.45454545,   0.00000000,   0.00000000], 0.00826446],  # 5
    [[ -0.45454545,   0.09090909,   0.00000000], 0.00826446],  # 6
    [[ -0.45454545,   0.18181818,   0.00000000], 0.00826446],  # 7
    [[ -0.45454545,   0.27272727,   0.00000000], 0.00826446],  # 8
    [[ -0.45454545,   0.36363636,   0.00000000], 0.00826446],  # 9
    # ...
    [[  0.45454545,   0.45454545,   0.00000000], 0.00826446]]  # 120

plane wave coefficients: 527
cutoff: 100.0 eV

spin-components: 4  # (non-collinear spins)
bands: 42
valence electrons: 29.0
spin-degeneracy: 1
dtype: complex128

memory:
    wave functions: 82_612_992  # bytes  (6_884_416 per core)

parallelization:
    kpt:    12
    domain: 1
    band:   1

density:
  components: 4
  grid points: [10 10 35]
  charge: 0.0  # |e|

potential:
  grid points: [10 10 35]

species:
  Mn:
    name: Manganese
    id: 0d715a8018be061a6e9ea6f2d364ac92
    Z: 25.0
    valence: 15
    core: 10
    charge: 0.0
    file: /zhome/86/d/1666/PAW/gpaw-setups-0.9.20000/Mn.LDA.gz
    compensation charges: {type: gauss,
                           rc: 0.38,
                           lmax: 2}
    cutoffs: {filter: 2.14,
              core: 0.86}
    valence states:
      #              energy  rcut
      - 3s(2.00)   -85.387   1.275
      - 4s(2.00)    -5.282   1.275
      - 3p(6.00)   -54.493   1.281
      - 4p(0.00)    -1.471   1.281
      - 3d(5.00)    -7.009   1.138
      -  d          20.203   1.138
  
    # Using partial waves for Mn as LCAO basis

  I:
    name: Iodine
    id: b559721c0c096a7b4c8fc0e0f4de5cf4
    Z: 53.0
    valence: 7
    core: 46
    charge: 0.0
    file: /zhome/86/d/1666/PAW/gpaw-setups-0.9.20000/I.LDA.gz
    compensation charges: {type: gauss,
                           rc: 0.37,
                           lmax: 2}
    cutoffs: {filter: 2.06,
              core: 2.90}
    valence states:
      #              energy  rcut
      - 5s(2.00)   -17.626   1.164
      - 5p(5.00)    -7.241   1.164
      -  s           9.585   1.164
      -  p          19.970   1.164
      -  d           0.000   1.164
  
    # Using partial waves for I as LCAO basis

Reference energy: -418222.442431  # eV

eigensolver:
  name: 'Davidson'
  niter: 2
  converge_bands: 'occupied'
Density mixing:
  Method: sum
  Backend: pulay
  Linear mixing parameter: 0.05
  old densities: 5
  Damping of long wavelength oscillations: 100
occupation numbers:
  Fermi-Dirac:
    width: 0.1000  # eV
  

poisson solver:
  ecut: 800.0  # eV

xc functional:
  name: None

convergence criteria:
- Maximum [total energy] change in last 3 cyles: 0.0005 eV / valence electron
- Maximum integral of absolute [dens]ity change: 0.0001 electrons / valence electron
- Maximum integral of absolute [eigenst]ate change: 4e-08 eV^2 / valence electron
maximum number of iterations: 333

#      iter     time        total  log10-change:
#                          energy   eigst   dens
# iter:   1 12:40:05    21.170436                  +1.0,+0.0,+0.0
# iter:   2 12:40:08    28.696620   -1.13  -0.91   +1.0,+0.0,+0.0
# iter:   3 12:40:11    33.611921   -0.93  -1.03   +1.1,+0.0,+0.0
# iter:   4 12:40:14    32.291056   -2.08  -1.18   +1.6,+0.0,+0.0
# iter:   5 12:40:16    36.486203   -1.31  -1.17   +2.0,+0.0,+0.0
# iter:   6 12:40:19    38.796707   -1.07  -1.35   +2.4,+0.0,+0.0
# iter:   7 12:40:22    38.857855   -1.29  -1.53   +2.3,+0.0,+0.0
# iter:   8 12:40:25    38.913023   -2.14  -1.54   +2.3,+0.0,+0.0
# iter:   9 12:40:28    38.923392   -2.34  -1.72   +2.4,+0.0,+0.0
# iter:  10 12:40:30    38.969270   -2.88  -1.80   +2.4,+0.0,+0.0
# iter:  11 12:40:33    38.798763   -2.42  -2.01   +2.5,+0.0,+0.0
# iter:  12 12:40:36    38.938007   -2.92  -1.68   +2.6,+0.0,+0.0
# iter:  13 12:40:39    38.958658   -3.18  -2.09   +2.6,+0.0,+0.0
# iter:  14 12:40:42    38.911209   -3.08  -2.43   +2.6,+0.0,+0.0
# iter:  15 12:40:44    38.907662   -4.06  -2.06   +2.7,+0.0,+0.0
# iter:  16 12:40:47    38.946286   -3.31  -2.04   +2.7,+0.0,+0.0
# iter:  17 12:40:50    38.941576   -4.66  -2.45   +2.7,+0.0,+0.0
# iter:  18 12:40:53    38.951597c  -3.69  -2.43   +2.7,+0.0,+0.0
# iter:  19 12:40:55    38.952142c  -4.55  -2.50   +2.7,+0.0,+0.0
# iter:  20 12:40:58    38.951832c  -4.51  -2.56   +2.7,+0.0,+0.0
# iter:  21 12:41:01    38.950900c  -4.93  -2.67   +2.7,+0.0,+0.0
# iter:  22 12:41:04    38.949456c  -5.27  -2.73   +2.7,+0.0,+0.0
# iter:  23 12:41:07    38.949176c  -5.91  -2.82   +2.7,+0.0,+0.0
# iter:  24 12:41:09    38.948048c  -4.88  -2.83   +2.7,+0.0,+0.0
# iter:  25 12:41:12    38.946275c  -5.41  -2.94   +2.7,+0.0,+0.0
# iter:  26 12:41:15    38.944811c  -4.81  -3.03   +2.8,+0.0,-0.0
# iter:  27 12:41:18    38.944601c  -5.77  -3.14   +2.8,+0.0,-0.0
# iter:  28 12:41:20    38.944670c  -5.39  -3.03   +2.8,+0.0,-0.0
# iter:  29 12:41:23    38.944676c  -5.79  -3.30   +2.8,+0.0,-0.0
# iter:  30 12:41:26    38.944920c  -5.94  -3.34   +2.8,+0.0,-0.0
# iter:  31 12:41:29    38.944741c  -6.66  -3.45   +2.8,+0.0,-0.0
# iter:  32 12:41:32    38.944641c  -7.12  -3.44   +2.8,+0.0,-0.0
# iter:  33 12:41:34    38.944476c  -6.56  -3.45   +2.8,+0.0,-0.0
# iter:  34 12:41:37    38.944466c  -6.10  -3.52   +2.8,+0.0,+0.0
