#  __  _  _
# | _ |_)|_||  |
# |__||  | ||/\| - 24.1.0

User:   s194113@n-62-28-31
Date:   Mon Apr 22 15:21:30 2024
Arch:   x86_64
Pid:    1806
CWD:    /zhome/87/8/147075/10302/10302_NM/MnI2/E_con
Python: 3.8.5
gpaw:   /zhome/87/8/147075/venv-name/gpaw/gpaw (10808453a8)
_gpaw:  /zhome/87/8/147075/venv-name/gpaw/
        _gpaw.cpython-38-x86_64-linux-gnu.so (10808453a8)
ase:    /zhome/87/8/147075/venv-name/ase/ase (version 3.23.0b1-c36115a2db)
numpy:  /zhome/87/8/147075/venv-name/lib/python3.8/site-packages/numpy (version 1.24.4)
scipy:  /zhome/87/8/147075/venv-name/lib/python3.8/site-packages/scipy (version 1.10.1)
libxc:  4.3.4
units:  Angstrom and eV
cores: 12
OpenMP: False
OMP_NUM_THREADS: 1

---
input parameters:
  kpts: 
    density: 6.0
    gamma: True
  magmoms: [[1, 0, 0], [0, 0, 0], [0, 0, 0]]
  mixer: 
    backend: 'pulay'
    beta: 0.05
    method: 'sum'
    nmaxold: 5
    weight: 100
  mode: 
    name: 'pw'
    ecut: 400
    qspiral: array([0.0952381, 0.0952381, 0.       ])
  parallel: 
    kpt: None
    domain: 1
    band: 1
    order: 'kdb'
    stridebands: False
    augment_grids: False
    sl_auto: False
    sl_default: None
    sl_diagonalize: None
    sl_inverse_cholesky: None
    sl_lcao: None
    sl_lrtddft: None
    use_elpa: False
    elpasolver: '2stage'
    buffer_size: None
    gpu: False
  symmetry: 
    point_group: False
    time_reversal: False
  xc: 
    name: 'LDA'

#                        
#                        
#                        
#                        
#                        
#              I         
#                        
#        Mn              
#          I             
#                        
#                        
#                        
#                        
#                        

atoms: [  # symbols, positions [Ang] and initial magnetic moments
  [ Mn, [   0.000000,    0.000000,    7.513573], [ 1.000,  0.000,  0.000]], # 0
  [  I, [   2.083000,    1.202621,    9.027147], [ 0.000,  0.000,  0.000]], # 1
  [  I, [   0.000000,    2.405241,    6.000000], [ 0.000,  0.000,  0.000]]] # 2

cell: [  # Ang
#     x            y            z
  [   4.166000,    0.000000,    0.000000],
  [  -2.083000,    3.607862,    0.000000],
  [   0.000000,   -0.000000,   15.027147]]

periodic: [True      , True      , False     ]
lengths:  [  4.166000,   4.166000,  15.027147]  # Ang
angles:   [ 90.000000,  90.000000, 120.000000]

symmetry:
  number of symmetries: 1
  rotations: [
    [[ 1,  0,  0], [ 0,  1,  0], [ 0,  0,  1]]]

bz sampling:
  number of bz points: 121
  number of ibz points: 121
  monkhorst-pack size: [11, 11, 1]
  monkhorst-pack shift: [0, 0, 0]
  points and weights: [
    [[ -0.45454545,  -0.45454545,   0.00000000], 0.00826446],  # 0
    [[ -0.45454545,  -0.36363636,   0.00000000], 0.00826446],  # 1
    [[ -0.45454545,  -0.27272727,   0.00000000], 0.00826446],  # 2
    [[ -0.45454545,  -0.18181818,   0.00000000], 0.00826446],  # 3
    [[ -0.45454545,  -0.09090909,   0.00000000], 0.00826446],  # 4
    [[ -0.45454545,   0.00000000,   0.00000000], 0.00826446],  # 5
    [[ -0.45454545,   0.09090909,   0.00000000], 0.00826446],  # 6
    [[ -0.45454545,   0.18181818,   0.00000000], 0.00826446],  # 7
    [[ -0.45454545,   0.27272727,   0.00000000], 0.00826446],  # 8
    [[ -0.45454545,   0.36363636,   0.00000000], 0.00826446],  # 9
    # ...
    [[  0.45454545,   0.45454545,   0.00000000], 0.00826446]]  # 120

plane wave coefficients: 4118
cutoff: 400.0 eV

spin-components: 4  # (non-collinear spins)
bands: 42
valence electrons: 29.0
spin-degeneracy: 1
dtype: complex128

memory:
    wave functions: 669_685_632  # bytes  (55_807_136 per core)

parallelization:
    kpt:    12
    domain: 1
    band:   1

density:
  components: 4
  grid points: [20 20 70]
  charge: 0.0  # |e|

potential:
  grid points: [20 20 70]

species:
  Mn:
    name: Manganese
    id: 0d715a8018be061a6e9ea6f2d364ac92
    Z: 25.0
    valence: 15
    core: 10
    charge: 0.0
    file: /zhome/86/d/1666/PAW/gpaw-setups-0.9.20000/Mn.LDA.gz
    compensation charges: {type: gauss,
                           rc: 0.38,
                           lmax: 2}
    cutoffs: {filter: 2.14,
              core: 0.86}
    valence states:
      #              energy  rcut
      - 3s(2.00)   -85.387   1.275
      - 4s(2.00)    -5.282   1.275
      - 3p(6.00)   -54.493   1.281
      - 4p(0.00)    -1.471   1.281
      - 3d(5.00)    -7.009   1.138
      -  d          20.203   1.138
  
    # Using partial waves for Mn as LCAO basis

  I:
    name: Iodine
    id: b559721c0c096a7b4c8fc0e0f4de5cf4
    Z: 53.0
    valence: 7
    core: 46
    charge: 0.0
    file: /zhome/86/d/1666/PAW/gpaw-setups-0.9.20000/I.LDA.gz
    compensation charges: {type: gauss,
                           rc: 0.37,
                           lmax: 2}
    cutoffs: {filter: 2.06,
              core: 2.90}
    valence states:
      #              energy  rcut
      - 5s(2.00)   -17.626   1.164
      - 5p(5.00)    -7.241   1.164
      -  s           9.585   1.164
      -  p          19.970   1.164
      -  d           0.000   1.164
  
    # Using partial waves for I as LCAO basis

Reference energy: -418222.442431  # eV

eigensolver:
  name: 'Davidson'
  niter: 2
  converge_bands: 'occupied'
Density mixing:
  Method: sum
  Backend: pulay
  Linear mixing parameter: 0.05
  old densities: 5
  Damping of long wavelength oscillations: 100
occupation numbers:
  Fermi-Dirac:
    width: 0.1000  # eV
  

poisson solver:
  ecut: 3200.0  # eV

xc functional:
  name: None

convergence criteria:
- Maximum [total energy] change in last 3 cyles: 0.0005 eV / valence electron
- Maximum integral of absolute [dens]ity change: 0.0001 electrons / valence electron
- Maximum integral of absolute [eigenst]ate change: 4e-08 eV^2 / valence electron
maximum number of iterations: 333

#      iter     time        total  log10-change:
#                          energy   eigst   dens
# iter:   1 15:21:45   -15.101710                  +1.0,+0.0,+0.0
# iter:   2 15:21:54   -13.803174   -0.55  -1.10   +0.9,-0.0,+0.0
# iter:   3 15:22:03   -13.601106   -0.98  -1.37   +1.0,-0.0,+0.0
# iter:   4 15:22:12   -13.766665   -1.08  -1.54   +1.3,-0.0,+0.0
# iter:   5 15:22:20   -13.801913   -1.89  -1.64   +1.8,-0.0,+0.0
# iter:   6 15:22:29   -13.878574   -2.21  -1.63   +2.1,-0.0,+0.0
# iter:   7 15:22:38   -14.044024   -1.75  -1.56   +2.5,-0.0,+0.0
# iter:   8 15:22:47   -14.330526   -1.65  -1.59   +3.1,+0.0,+0.0
# iter:   9 15:22:55   -13.865973   -2.23  -1.67   +2.7,-0.0,+0.0
# iter:  10 15:23:04   -14.738884   -1.76  -1.55   +3.6,+0.0,+0.0
# iter:  11 15:23:13   -15.153677   -1.37  -1.81   +4.8,+0.0,-0.0
# iter:  12 15:23:22   -14.772908   -2.09  -2.06   +3.8,+0.0,-0.0
# iter:  13 15:23:30   -15.077509   -2.16  -1.86   +4.4,+0.0,-0.0
# iter:  14 15:23:39   -14.624008   -1.85  -2.09   +3.6,+0.0,-0.0
# iter:  15 15:23:48   -15.133717   -1.79  -1.78   +4.7,+0.0,-0.0
# iter:  16 15:23:56   -15.139834   -2.89  -2.57   +4.7,+0.0,-0.0
# iter:  17 15:24:05   -15.143250c  -3.49  -2.60   +4.8,+0.0,-0.0
# iter:  18 15:24:14   -15.144610c  -3.95  -2.61   +4.8,+0.0,-0.0
# iter:  19 15:24:23   -15.148165c  -3.82  -2.63   +4.8,+0.0,-0.0
# iter:  20 15:24:31   -15.148152c  -4.38  -3.00   +4.8,+0.0,-0.0
# iter:  21 15:24:40   -15.147502c  -4.55  -2.99   +4.8,+0.0,-0.0
# iter:  22 15:24:49   -15.146765c  -4.37  -3.06   +4.8,+0.0,-0.0
# iter:  23 15:24:57   -15.146973c  -4.82  -3.17   +4.8,+0.0,+0.0
# iter:  24 15:25:06   -15.147108c  -5.19  -3.25   +4.8,+0.0,+0.0
# iter:  25 15:25:15   -15.147442c  -5.33  -3.28   +4.8,+0.0,+0.0
# iter:  26 15:25:24   -15.147462c  -5.75  -3.52   +4.8,+0.0,+0.0
# iter:  27 15:25:32   -15.147560c  -5.51  -3.54   +4.8,+0.0,+0.0
# iter:  28 15:25:41   -15.147748c  -5.67  -3.66   +4.8,+0.0,+0.0
# iter:  29 15:25:50   -15.147895c  -5.53  -3.72   +4.9,+0.0,+0.0
# iter:  30 15:25:58   -15.147892c  -6.10  -4.32c  +4.9,+0.0,+0.0
# iter:  31 15:26:07   -15.147893c  -6.39  -4.37c  +4.9,+0.0,+0.0
# iter:  32 15:26:16   -15.147893c  -6.59  -4.44c  +4.9,+0.0,+0.0
# iter:  33 15:26:24   -15.147888c  -6.59  -4.49c  +4.9,+0.0,+0.0
# iter:  34 15:26:33   -15.147889c  -6.97  -4.71c  +4.9,+0.0,+0.0
# iter:  35 15:26:42   -15.147890c  -7.14  -4.78c  +4.9,+0.0,+0.0
# iter:  36 15:26:51   -15.147897c  -7.04  -4.82c  +4.9,+0.0,+0.0
# iter:  37 15:26:59   -15.147897c  -7.40c -5.22c  +4.9,+0.0,+0.0
scf_steps: 37
energies:  # eV
  coulomb:         -18.239714
  zero:              0.096928
  xc:              -18.505467
  external:          0.000000
  kinetic:          21.502056
  spinorbit:         0.000000
  entropy:          -0.003401
  total:           -15.149598
  extrapolated:    -15.147897

dipole moment: [-5.414787, -9.378687, -13.565055]  # |e|*Ang

total magnetic moment: [4.855328, 0.014661, 0.000000]

local magnetic moments: [
  [ 4.293086,  0.000000,  0.000000],  # Mn 0
  [ 0.065688, -0.044785,  0.000000],  # I  1
  [ 0.065688, -0.044786,  0.000000]]  # I  2


Fermi level: -1.091 eV

kpt = [-0.455, -0.455, 0.000], weight = 0.008:
  Band      eig [eV]   occ [0-1]
     0       -81.995       1.000
   ...
    21        -3.904       1.000
    22        -3.837       1.000
    23        -3.814       1.000
    24        -3.670       1.000
    25        -3.586       1.000
    26        -3.454       1.000
    27        -1.805       0.999
    28        -1.759       0.999
    29        -0.523       0.003
    30        -0.164       0.000
    31        -0.106       0.000
    32         0.764       0.000
    33         0.858       0.000
    34         1.556       0.000
    35         2.613       0.000
    36         3.078       0.000
   ...
    41         5.070       0.000

kpt = [-0.455, -0.364, 0.000], weight = 0.008:
  Band      eig [eV]   occ [0-1]
     0       -81.995       1.000
   ...
    21        -3.995       1.000
    22        -3.866       1.000
    23        -3.752       1.000
    24        -3.650       1.000
    25        -3.464       1.000
    26        -3.370       1.000
    27        -1.926       1.000
    28        -1.830       0.999
    29        -0.389       0.001
    30        -0.167       0.000
    31        -0.095       0.000
    32         0.679       0.000
    33         0.795       0.000
    34         1.811       0.000
    35         2.870       0.000
    36         3.435       0.000
   ...
    41         5.267       0.000

kpt = [-0.455, -0.273, 0.000], weight = 0.008:
  Band      eig [eV]   occ [0-1]
     0       -81.995       1.000
   ...
    21        -4.097       1.000
    22        -3.879       1.000
    23        -3.704       1.000
    24        -3.654       1.000
    25        -3.378       1.000
    26        -3.312       1.000
    27        -2.038       1.000
    28        -1.851       0.999
    29        -0.284       0.000
    30        -0.151       0.000
    31        -0.110       0.000
    32         0.593       0.000
    33         0.768       0.000
    34         2.172       0.000
    35         2.892       0.000
    36         4.032       0.000
   ...
    41         5.191       0.000
(only showing first 3 out of 121 k-points)

Gap: 0.832 eV
Transition (v -> c):
  (s=0, k=60, n=28, [0.00, 0.00, 0.00]) -> (s=0, k=115, n=29, [0.45, 0.00, 0.00])
# Writing to gsq-26.gpw (mode='')

---

timing:  # [seconds]
  Total: 330.173  # ━━━━━━━━━━━━━━━━━━━━━━━━━━━━━━━━━━━━━━━━━━━━━━━━━━━━━━━━━
  Init:    6.543  # ━
  SCF:   323.149  # ━━━━━━━━━━━━━━━━━━━━━━━━━━━━━━━━━━━━━━━━━━━━━━━━━━━━━━━━

Max RSS: 948.461  # MiB
