#  __  _  _
# | _ |_)|_||  |
# |__||  | ||/\| - 24.1.0

User:   s194113@n-62-28-19
Date:   Mon Apr 22 16:24:34 2024
Arch:   x86_64
Pid:    27945
CWD:    /zhome/87/8/147075/10302/10302_NM/MnI2/E_con
Python: 3.8.5
gpaw:   /zhome/87/8/147075/venv-name/gpaw/gpaw (10808453a8)
_gpaw:  /zhome/87/8/147075/venv-name/gpaw/
        _gpaw.cpython-38-x86_64-linux-gnu.so (10808453a8)
ase:    /zhome/87/8/147075/venv-name/ase/ase (version 3.23.0b1-c36115a2db)
numpy:  /zhome/87/8/147075/venv-name/lib/python3.8/site-packages/numpy (version 1.24.4)
scipy:  /zhome/87/8/147075/venv-name/lib/python3.8/site-packages/scipy (version 1.10.1)
libxc:  4.3.4
units:  Angstrom and eV
cores: 12
OpenMP: False
OMP_NUM_THREADS: 1

---
input parameters:
  kpts: 
    density: 6.0
    gamma: True
  magmoms: [[1, 0, 0], [0, 0, 0], [0, 0, 0]]
  mixer: 
    backend: 'pulay'
    beta: 0.05
    method: 'sum'
    nmaxold: 5
    weight: 100
  mode: 
    name: 'pw'
    ecut: 1000
    qspiral: array([0.25, 0.  , 0.  ])
  parallel: 
    kpt: None
    domain: 1
    band: 1
    order: 'kdb'
    stridebands: False
    augment_grids: False
    sl_auto: False
    sl_default: None
    sl_diagonalize: None
    sl_inverse_cholesky: None
    sl_lcao: None
    sl_lrtddft: None
    use_elpa: False
    elpasolver: '2stage'
    buffer_size: None
    gpu: False
  symmetry: 
    point_group: False
    time_reversal: False
  xc: 
    name: 'LDA'

#                        
#                        
#                        
#                        
#                        
#              I         
#                        
#        Mn              
#          I             
#                        
#                        
#                        
#                        
#                        

atoms: [  # symbols, positions [Ang] and initial magnetic moments
  [ Mn, [   0.000000,    0.000000,    7.513573], [ 1.000,  0.000,  0.000]], # 0
  [  I, [   2.083000,    1.202621,    9.027147], [ 0.000,  0.000,  0.000]], # 1
  [  I, [   0.000000,    2.405241,    6.000000], [ 0.000,  0.000,  0.000]]] # 2

cell: [  # Ang
#     x            y            z
  [   4.166000,    0.000000,    0.000000],
  [  -2.083000,    3.607862,    0.000000],
  [   0.000000,   -0.000000,   15.027147]]

periodic: [True      , True      , False     ]
lengths:  [  4.166000,   4.166000,  15.027147]  # Ang
angles:   [ 90.000000,  90.000000, 120.000000]

symmetry:
  number of symmetries: 1
  rotations: [
    [[ 1,  0,  0], [ 0,  1,  0], [ 0,  0,  1]]]

bz sampling:
  number of bz points: 121
  number of ibz points: 121
  monkhorst-pack size: [11, 11, 1]
  monkhorst-pack shift: [0, 0, 0]
  points and weights: [
    [[ -0.45454545,  -0.45454545,   0.00000000], 0.00826446],  # 0
    [[ -0.45454545,  -0.36363636,   0.00000000], 0.00826446],  # 1
    [[ -0.45454545,  -0.27272727,   0.00000000], 0.00826446],  # 2
    [[ -0.45454545,  -0.18181818,   0.00000000], 0.00826446],  # 3
    [[ -0.45454545,  -0.09090909,   0.00000000], 0.00826446],  # 4
    [[ -0.45454545,   0.00000000,   0.00000000], 0.00826446],  # 5
    [[ -0.45454545,   0.09090909,   0.00000000], 0.00826446],  # 6
    [[ -0.45454545,   0.18181818,   0.00000000], 0.00826446],  # 7
    [[ -0.45454545,   0.27272727,   0.00000000], 0.00826446],  # 8
    [[ -0.45454545,   0.36363636,   0.00000000], 0.00826446],  # 9
    # ...
    [[  0.45454545,   0.45454545,   0.00000000], 0.00826446]]  # 120

plane wave coefficients: 16265
cutoff: 1000.0 eV

spin-components: 4  # (non-collinear spins)
bands: 42
valence electrons: 29.0
spin-degeneracy: 1
dtype: complex128

memory:
    wave functions: 2_636_460_288  # bytes  (219_705_024 per core)

parallelization:
    kpt:    12
    domain: 1
    band:   1

density:
  components: 4
  grid points: [ 32  32 112]
  charge: 0.0  # |e|

potential:
  grid points: [ 32  32 112]

species:
  Mn:
    name: Manganese
    id: 0d715a8018be061a6e9ea6f2d364ac92
    Z: 25.0
    valence: 15
    core: 10
    charge: 0.0
    file: /zhome/86/d/1666/PAW/gpaw-setups-0.9.20000/Mn.LDA.gz
    compensation charges: {type: gauss,
                           rc: 0.38,
                           lmax: 2}
    cutoffs: {filter: 2.14,
              core: 0.86}
    valence states:
      #              energy  rcut
      - 3s(2.00)   -85.387   1.275
      - 4s(2.00)    -5.282   1.275
      - 3p(6.00)   -54.493   1.281
      - 4p(0.00)    -1.471   1.281
      - 3d(5.00)    -7.009   1.138
      -  d          20.203   1.138
  
    # Using partial waves for Mn as LCAO basis

  I:
    name: Iodine
    id: b559721c0c096a7b4c8fc0e0f4de5cf4
    Z: 53.0
    valence: 7
    core: 46
    charge: 0.0
    file: /zhome/86/d/1666/PAW/gpaw-setups-0.9.20000/I.LDA.gz
    compensation charges: {type: gauss,
                           rc: 0.37,
                           lmax: 2}
    cutoffs: {filter: 2.06,
              core: 2.90}
    valence states:
      #              energy  rcut
      - 5s(2.00)   -17.626   1.164
      - 5p(5.00)    -7.241   1.164
      -  s           9.585   1.164
      -  p          19.970   1.164
      -  d           0.000   1.164
  
    # Using partial waves for I as LCAO basis

Reference energy: -418222.442431  # eV

eigensolver:
  name: 'Davidson'
  niter: 2
  converge_bands: 'occupied'
Density mixing:
  Method: sum
  Backend: pulay
  Linear mixing parameter: 0.05
  old densities: 5
  Damping of long wavelength oscillations: 100
occupation numbers:
  Fermi-Dirac:
    width: 0.1000  # eV
  

poisson solver:
  ecut: 8000.0  # eV

xc functional:
  name: None

convergence criteria:
- Maximum [total energy] change in last 3 cyles: 0.0005 eV / valence electron
- Maximum integral of absolute [dens]ity change: 0.0001 electrons / valence electron
- Maximum integral of absolute [eigenst]ate change: 4e-08 eV^2 / valence electron
maximum number of iterations: 333

#      iter     time        total  log10-change:
#                          energy   eigst   dens
# iter:   1 16:25:36   -15.058825                  +1.0,+0.0,+0.0
# iter:   2 16:26:16   -13.818257   -0.41  -1.10   +0.9,-0.0,+0.0
# iter:   3 16:26:56   -13.625742   -0.87  -1.38   +1.0,-0.0,-0.0
# iter:   4 16:27:36   -13.804875   -1.02  -1.54   +1.3,-0.0,-0.0
# iter:   5 16:28:16   -13.853449   -1.73  -1.64   +1.8,-0.0,+0.0
# iter:   6 16:28:55   -14.004605   -1.97  -1.62   +2.1,-0.0,+0.0
# iter:   7 16:29:35   -14.118256   -2.25  -1.51   +2.4,-0.0,+0.0
# iter:   8 16:30:14   -14.619059   -1.02  -1.48   +3.3,+0.0,+0.0
# iter:   9 16:30:54   -14.686314   -2.31  -1.84   +3.5,+0.0,+0.0
# iter:  10 16:31:33   -14.531305   -2.57  -1.84   +3.3,+0.0,+0.0
# iter:  11 16:32:13   -14.557412   -3.06  -1.95   +3.2,+0.0,+0.0
# iter:  12 16:32:52   -15.262028   -1.48  -1.81   +4.4,+0.0,-0.0
# iter:  13 16:33:32   -15.196257   -3.03  -1.88   +4.2,+0.0,-0.0
# iter:  14 16:34:12   -15.166215   -2.49  -1.97   +4.4,+0.0,+0.0
# iter:  15 16:34:52   -15.177373   -2.33  -2.09   +4.5,+0.0,+0.0
# iter:  16 16:35:31   -15.177405c  -3.02  -2.20   +4.6,+0.0,+0.0
# iter:  17 16:36:11   -15.179343c  -3.25  -2.30   +4.7,+0.0,+0.0
# iter:  18 16:36:51   -15.181553c  -3.93  -2.45   +4.7,+0.0,+0.0
# iter:  19 16:37:30   -15.177081c  -3.26  -2.52   +4.8,+0.0,+0.0
# iter:  20 16:38:10   -15.177121c  -3.52  -2.90   +4.7,+0.0,+0.0
# iter:  21 16:38:50   -15.176987c  -4.68  -3.21   +4.7,+0.0,+0.0
# iter:  22 16:39:29   -15.178154c  -3.54  -3.25   +4.7,+0.0,+0.0
# iter:  23 16:40:09   -15.177163c  -4.37  -3.10   +4.7,+0.0,+0.0
# iter:  24 16:40:49   -15.177077c  -4.92  -3.48   +4.7,+0.0,+0.0
# iter:  25 16:41:28   -15.177056c  -4.92  -3.60   +4.7,+0.0,+0.0
# iter:  26 16:42:08   -15.177054c  -5.23  -3.61   +4.7,+0.0,+0.0
# iter:  27 16:42:48   -15.177048c  -6.07  -4.08c  +4.7,+0.0,-0.0
# iter:  28 16:43:27   -15.177041c  -5.83  -4.16c  +4.7,+0.0,-0.0
# iter:  29 16:44:07   -15.177078c  -5.55  -4.26c  +4.7,+0.0,-0.0
# iter:  30 16:44:47   -15.177048c  -5.60  -4.02c  +4.7,+0.0,-0.0
# iter:  31 16:45:26   -15.177045c  -6.36  -4.43c  +4.7,+0.0,-0.0
# iter:  32 16:46:06   -15.177049c  -6.32  -4.30c  +4.7,+0.0,-0.0
# iter:  33 16:46:46   -15.177049c  -7.18  -4.71c  +4.7,+0.0,-0.0
# iter:  34 16:47:25   -15.177048c  -7.35  -4.80c  +4.7,+0.0,-0.0
# iter:  35 16:48:05   -15.177048c  -7.51c -4.80c  +4.7,+0.0,-0.0
scf_steps: 35
energies:  # eV
  coulomb:         -17.772769
  zero:              0.089067
  xc:              -18.452511
  external:          0.000000
  kinetic:          20.960533
  spinorbit:         0.000000
  entropy:          -0.002738
  total:           -15.178417
  extrapolated:    -15.177048

dipole moment: [-5.490952, -9.795596, -12.490254]  # |e|*Ang

total magnetic moment: [4.716406, 0.013895, -0.000000]

local magnetic moments: [
  [ 4.277658,  0.000000, -0.000000],  # Mn 0
  [ 0.028709, -0.055942,  0.000000],  # I  1
  [ 0.055942, -0.028709,  0.000000]]  # I  2


Fermi level: -1.082 eV

kpt = [-0.455, -0.455, 0.000], weight = 0.008:
  Band      eig [eV]   occ [0-1]
     0       -81.967       1.000
   ...
    21        -3.953       1.000
    22        -3.836       1.000
    23        -3.746       1.000
    24        -3.696       1.000
    25        -3.422       1.000
    26        -3.366       1.000
    27        -1.861       1.000
    28        -1.753       0.999
    29        -0.470       0.002
    30        -0.143       0.000
    31        -0.102       0.000
    32         0.722       0.000
    33         0.832       0.000
    34         1.675       0.000
    35         2.736       0.000
    36         3.202       0.000
   ...
    41         5.187       0.000

kpt = [-0.455, -0.364, 0.000], weight = 0.008:
  Band      eig [eV]   occ [0-1]
     0       -81.967       1.000
   ...
    21        -4.028       1.000
    22        -3.820       1.000
    23        -3.716       1.000
    24        -3.561       1.000
    25        -3.420       1.000
    26        -3.278       1.000
    27        -1.945       1.000
    28        -1.804       0.999
    29        -0.382       0.001
    30        -0.147       0.000
    31        -0.080       0.000
    32         0.695       0.000
    33         0.735       0.000
    34         1.848       0.000
    35         2.856       0.000
    36         3.378       0.000
   ...
    41         5.381       0.000

kpt = [-0.455, -0.273, 0.000], weight = 0.008:
  Band      eig [eV]   occ [0-1]
     0       -81.967       1.000
   ...
    21        -4.041       1.000
    22        -3.816       1.000
    23        -3.677       1.000
    24        -3.519       1.000
    25        -3.354       1.000
    26        -3.187       1.000
    27        -2.049       1.000
    28        -1.837       0.999
    29        -0.271       0.000
    30        -0.149       0.000
    31        -0.086       0.000
    32         0.571       0.000
    33         0.725       0.000
    34         2.274       0.000
    35         2.958       0.000
    36         3.874       0.000
   ...
    41         5.402       0.000
(only showing first 3 out of 121 k-points)

Gap: 0.827 eV
Transition (v -> c):
  (s=0, k=60, n=28, [0.00, 0.00, 0.00]) -> (s=0, k=5, n=29, [-0.45, 0.00, 0.00])
# Writing to gsq-05.gpw (mode='')

---

timing:  # [seconds]
  Total: 1411.473  # ━━━━━━━━━━━━━━━━━━━━━━━━━━━━━━━━━━━━━━━━━━━━━━━━━━━━━━━━
  Init:    25.576  # ━
  SCF:   1385.180  # ━━━━━━━━━━━━━━━━━━━━━━━━━━━━━━━━━━━━━━━━━━━━━━━━━━━━━━━

Max RSS: 828.996  # MiB
