#  __  _  _
# | _ |_)|_||  |
# |__||  | ||/\| - 24.1.0

User:   s194113@n-62-29-13
Date:   Tue Apr 23 14:00:36 2024
Arch:   x86_64
Pid:    31044
CWD:    /zhome/87/8/147075/10302/10302_NM/NiI2/V_con
Python: 3.8.5
gpaw:   /zhome/87/8/147075/venv-name/gpaw/gpaw (10808453a8)
_gpaw:  /zhome/87/8/147075/venv-name/gpaw/
        _gpaw.cpython-38-x86_64-linux-gnu.so (10808453a8)
ase:    /zhome/87/8/147075/venv-name/ase/ase (version 3.23.0b1-c36115a2db)
numpy:  /zhome/87/8/147075/venv-name/lib/python3.8/site-packages/numpy (version 1.24.4)
scipy:  /zhome/87/8/147075/venv-name/lib/python3.8/site-packages/scipy (version 1.10.1)
libxc:  4.3.4
units:  Angstrom and eV
cores: 12
OpenMP: False
OMP_NUM_THREADS: 1

---
input parameters:
  kpts: 
    density: 6.0
    gamma: True
  magmoms: [[1, 0, 0], [0, 0, 0], [0, 0, 0]]
  mixer: 
    backend: 'pulay'
    beta: 0.05
    method: 'sum'
    nmaxold: 5
    weight: 100
  mode: 
    name: 'pw'
    ecut: 600
    qspiral: array([0.16666667, 0.16666667, 0.        ])
  parallel: 
    kpt: None
    domain: 1
    band: 1
    order: 'kdb'
    stridebands: False
    augment_grids: False
    sl_auto: False
    sl_default: None
    sl_diagonalize: None
    sl_inverse_cholesky: None
    sl_lcao: None
    sl_lrtddft: None
    use_elpa: False
    elpasolver: '2stage'
    buffer_size: None
    gpu: False
  symmetry: 
    point_group: False
    time_reversal: False
  xc: 
    name: 'LDA'

#                        
#                        
#                        
#                        
#                        
#              I         
#                        
#        Ni              
#          I             
#                        
#                        
#                        
#                        
#                        

atoms: [  # symbols, positions [Ang] and initial magnetic moments
  [ Ni, [   0.000000,    0.000000,    8.513573], [ 1.000,  0.000,  0.000]], # 0
  [  I, [   1.985000,    1.146040,   10.027147], [ 0.000,  0.000,  0.000]], # 1
  [  I, [  -0.000000,    2.292081,    7.000000], [ 0.000,  0.000,  0.000]]] # 2

cell: [  # Ang
#     x            y            z
  [   3.970000,    0.000000,    0.000000],
  [  -1.985000,    3.438121,    0.000000],
  [   0.000000,   -0.000000,   17.027147]]

periodic: [True      , True      , False     ]
lengths:  [  3.970000,   3.970000,  17.027147]  # Ang
angles:   [ 90.000000,  90.000000, 120.000000]

symmetry:
  number of symmetries: 1
  rotations: [
    [[ 1,  0,  0], [ 0,  1,  0], [ 0,  0,  1]]]

bz sampling:
  number of bz points: 121
  number of ibz points: 121
  monkhorst-pack size: [11, 11, 1]
  monkhorst-pack shift: [0, 0, 0]
  points and weights: [
    [[ -0.45454545,  -0.45454545,   0.00000000], 0.00826446],  # 0
    [[ -0.45454545,  -0.36363636,   0.00000000], 0.00826446],  # 1
    [[ -0.45454545,  -0.27272727,   0.00000000], 0.00826446],  # 2
    [[ -0.45454545,  -0.18181818,   0.00000000], 0.00826446],  # 3
    [[ -0.45454545,  -0.09090909,   0.00000000], 0.00826446],  # 4
    [[ -0.45454545,   0.00000000,   0.00000000], 0.00826446],  # 5
    [[ -0.45454545,   0.09090909,   0.00000000], 0.00826446],  # 6
    [[ -0.45454545,   0.18181818,   0.00000000], 0.00826446],  # 7
    [[ -0.45454545,   0.27272727,   0.00000000], 0.00826446],  # 8
    [[ -0.45454545,   0.36363636,   0.00000000], 0.00826446],  # 9
    # ...
    [[  0.45454545,   0.45454545,   0.00000000], 0.00826446]]  # 120

plane wave coefficients: 7794
cutoff: 600.0 eV

spin-components: 4  # (non-collinear spins)
bands: 40
valence electrons: 30.0
spin-degeneracy: 1
dtype: complex128

memory:
    wave functions: 1_203_417_600  # bytes  (100_284_800 per core)

parallelization:
    kpt:    12
    domain: 1
    band:   1

density:
  components: 4
  grid points: [24 24 98]
  charge: 0.0  # |e|

potential:
  grid points: [24 24 98]

species:
  Ni:
    name: Nickel
    id: 1802175e8de9ea26d9f4394ec1a7d564
    Z: 28.0
    valence: 16
    core: 12
    charge: 0.0
    file: /zhome/86/d/1666/PAW/gpaw-setups-0.9.20000/Ni.LDA.gz
    compensation charges: {type: gauss,
                           rc: 0.36,
                           lmax: 2}
    cutoffs: {filter: 2.14,
              core: 1.98}
    valence states:
      #              energy  rcut
      - 4s(2.00)    -5.858   1.164
      - 3p(6.00)   -71.266   1.207
      - 4p(0.00)    -1.338   1.207
      - 3d(8.00)    -9.141   1.138
      -  s          21.353   1.164
      -  d          18.071   1.138
  
    # Using partial waves for Ni as LCAO basis

  I:
    name: Iodine
    id: b559721c0c096a7b4c8fc0e0f4de5cf4
    Z: 53.0
    valence: 7
    core: 46
    charge: 0.0
    file: /zhome/86/d/1666/PAW/gpaw-setups-0.9.20000/I.LDA.gz
    compensation charges: {type: gauss,
                           rc: 0.37,
                           lmax: 2}
    cutoffs: {filter: 2.06,
              core: 2.90}
    valence states:
      #              energy  rcut
      - 5s(2.00)   -17.626   1.164
      - 5p(5.00)    -7.241   1.164
      -  s           9.585   1.164
      -  p          19.970   1.164
      -  d           0.000   1.164
  
    # Using partial waves for I as LCAO basis

Reference energy: -428067.566327  # eV

eigensolver:
  name: 'Davidson'
  niter: 2
  converge_bands: 'occupied'
Density mixing:
  Method: sum
  Backend: pulay
  Linear mixing parameter: 0.05
  old densities: 5
  Damping of long wavelength oscillations: 100
occupation numbers:
  Fermi-Dirac:
    width: 0.1000  # eV
  

poisson solver:
  ecut: 4800.0  # eV

xc functional:
  name: None

convergence criteria:
- Maximum [total energy] change in last 3 cyles: 0.0005 eV / valence electron
- Maximum integral of absolute [dens]ity change: 0.0001 electrons / valence electron
- Maximum integral of absolute [eigenst]ate change: 4e-08 eV^2 / valence electron
maximum number of iterations: 333

#      iter     time        total  log10-change:
#                          energy   eigst   dens
# iter:   1 14:01:05   -13.683729                  +1.0,+0.0,+0.0
# iter:   2 14:01:23   -12.657710   -0.09  -1.31   +1.0,+0.0,+0.0
# iter:   3 14:01:41   -12.234660   -0.54  -1.45   +1.0,+0.0,+0.0
# iter:   4 14:01:59   -12.303400   -1.18  -1.68   +1.2,+0.0,+0.0
# iter:   5 14:02:17   -12.567987   -1.31  -1.66   +1.2,+0.0,-0.0
# iter:   6 14:02:35   -12.324738   -1.53  -1.74   +1.3,+0.0,-0.0
# iter:   7 14:02:53   -12.309590   -1.81  -2.13   +1.3,+0.0,+0.0
# iter:   8 14:03:11   -12.306162   -2.01  -2.32   +1.4,+0.0,+0.0
# iter:   9 14:03:29   -12.306822c  -2.19  -2.65   +1.4,+0.0,+0.0
# iter:  10 14:03:46   -12.307436c  -2.39  -2.99   +1.4,+0.0,+0.0
# iter:  11 14:04:04   -12.310718c  -2.55  -2.90   +1.4,+0.0,+0.0
# iter:  12 14:04:22   -12.311649c  -2.68  -3.36   +1.5,+0.0,+0.0
# iter:  13 14:04:40   -12.311719c  -2.83  -3.62   +1.5,+0.0,+0.0
# iter:  14 14:04:58   -12.311731c  -2.97  -3.71   +1.5,+0.0,+0.0
# iter:  15 14:05:15   -12.312039c  -3.10  -3.71   +1.5,+0.0,+0.0
# iter:  16 14:05:33   -12.312065c  -3.23  -3.75   +1.5,+0.0,+0.0
# iter:  17 14:05:51   -12.312088c  -3.37  -3.73   +1.5,+0.0,+0.0
# iter:  18 14:06:09   -12.312048c  -3.50  -3.75   +1.5,+0.0,+0.0
# iter:  19 14:06:27   -12.312093c  -3.63  -3.75   +1.5,+0.0,-0.0
# iter:  20 14:06:45   -12.312211c  -3.76  -3.74   +1.5,+0.0,+0.0
# iter:  21 14:07:02   -12.312150c  -3.88  -3.76   +1.5,+0.0,+0.0
# iter:  22 14:07:20   -12.312030c  -4.02  -3.73   +1.5,+0.0,-0.0
# iter:  23 14:07:38   -12.312088c  -4.14  -3.76   +1.5,+0.0,-0.0
# iter:  24 14:07:56   -12.312154c  -4.28  -3.79   +1.5,+0.0,-0.0
# iter:  25 14:08:14   -12.313430c  -4.25  -3.80   +1.5,+0.0,-0.0
# iter:  26 14:08:32   -12.313358c  -4.52  -4.44c  +1.5,+0.0,-0.0
# iter:  27 14:08:50   -12.313317c  -4.66  -4.54c  +1.5,+0.0,-0.0
# iter:  28 14:09:08   -12.313393c  -4.79  -4.47c  +1.5,+0.0,-0.0
# iter:  29 14:09:26   -12.313419c  -4.92  -4.57c  +1.5,+0.0,-0.0
# iter:  30 14:09:43   -12.313416c  -5.05  -4.61c  +1.5,+0.0,-0.0
# iter:  31 14:10:01   -12.313433c  -5.18  -4.62c  +1.5,+0.0,-0.0
# iter:  32 14:10:19   -12.313431c  -5.30  -4.70c  +1.5,+0.0,-0.0
# iter:  33 14:10:37   -12.313444c  -5.43  -4.94c  +1.5,+0.0,-0.0
# iter:  34 14:10:55   -12.313467c  -5.56  -5.09c  +1.5,+0.0,-0.0
# iter:  35 14:11:13   -12.313471c  -5.69  -5.41c  +1.5,+0.0,-0.0
# iter:  36 14:11:31   -12.313469c  -5.81  -5.50c  +1.5,+0.0,-0.0
# iter:  37 14:11:49   -12.313465c  -5.95  -5.57c  +1.5,+0.0,-0.0
# iter:  38 14:12:06   -12.313462c  -6.08  -5.76c  +1.5,+0.0,-0.0
# iter:  39 14:12:24   -12.313463c  -6.21  -5.90c  +1.5,+0.0,-0.0
# iter:  40 14:12:42   -12.313461c  -6.35  -5.90c  +1.5,+0.0,-0.0
# iter:  41 14:13:00   -12.313462c  -6.48  -5.87c  +1.5,+0.0,-0.0
# iter:  42 14:13:18   -12.313463c  -6.61  -5.91c  +1.5,+0.0,-0.0
# iter:  43 14:13:36   -12.313463c  -6.75  -6.01c  +1.5,+0.0,-0.0
# iter:  44 14:13:54   -12.313465c  -6.88  -6.09c  +1.5,+0.0,-0.0
# iter:  45 14:14:11   -12.313465c  -7.02  -6.21c  +1.5,+0.0,-0.0
# iter:  46 14:14:29   -12.313465c  -7.15  -6.20c  +1.5,+0.0,-0.0
# iter:  47 14:14:47   -12.313464c  -7.29  -6.17c  +1.5,+0.0,-0.0
# iter:  48 14:15:05   -12.313463c  -7.42c -6.35c  +1.5,+0.0,-0.0
scf_steps: 48
energies:  # eV
  coulomb:          -7.638061
  zero:              0.066695
  xc:              -14.889668
  external:          0.000000
  kinetic:          10.165996
  spinorbit:         0.000000
  entropy:          -0.036853
  total:           -12.331890
  extrapolated:    -12.313463

dipole moment: [-3.843468, -6.656318, -4.366995]  # |e|*Ang

total magnetic moment: [1.490094, 0.027818, -0.000000]

local magnetic moments: [
  [ 1.127677,  0.000000, -0.000000],  # Ni 0
  [ 0.059041, -0.102212, -0.000000],  # I  1
  [ 0.058998, -0.102237, -0.000000]]  # I  2


Fermi level: -1.677 eV

kpt = [-0.455, -0.455, 0.000], weight = 0.008:
  Band      eig [eV]   occ [0-1]
     0       -65.445       1.000
   ...
    22        -3.553       1.000
    23        -3.410       1.000
    24        -3.341       1.000
    25        -2.794       1.000
    26        -2.638       1.000
    27        -2.607       1.000
    28        -2.244       0.997
    29        -2.158       0.992
    30        -1.291       0.021
    31        -1.252       0.014
    32         1.252       0.000
    33         2.067       0.000
    34         3.415       0.000
    35         4.166       0.000
    36         4.217       0.000
    37         4.265       0.000
   ...
    39         5.118       0.000

kpt = [-0.455, -0.364, 0.000], weight = 0.008:
  Band      eig [eV]   occ [0-1]
     0       -65.445       1.000
   ...
    22        -3.527       1.000
    23        -3.412       1.000
    24        -3.366       1.000
    25        -2.873       1.000
    26        -2.636       1.000
    27        -2.633       1.000
    28        -2.221       0.996
    29        -2.086       0.983
    30        -1.313       0.025
    31        -1.183       0.007
    32         1.112       0.000
    33         2.091       0.000
    34         3.153       0.000
    35         3.949       0.000
    36         4.258       0.000
    37         4.329       0.000
   ...
    39         5.522       0.000

kpt = [-0.455, -0.273, 0.000], weight = 0.008:
  Band      eig [eV]   occ [0-1]
     0       -65.445       1.000
   ...
    22        -3.454       1.000
    23        -3.409       1.000
    24        -3.279       1.000
    25        -2.886       1.000
    26        -2.640       1.000
    27        -2.625       1.000
    28        -2.219       0.996
    29        -2.048       0.976
    30        -1.391       0.054
    31        -1.217       0.010
    32         1.542       0.000
    33         1.894       0.000
    34         3.654       0.000
    35         4.089       0.000
    36         4.104       0.000
    37         4.495       0.000
   ...
    39         4.926       0.000
(only showing first 3 out of 121 k-points)

Gap: 0.376 eV
Transition (v -> c):
  (s=0, k=60, n=29, [0.00, 0.00, 0.00]) -> (s=0, k=96, n=30, [0.27, 0.27, 0.00])
# Writing to gsq-23.gpw (mode='')

---

timing:  # [seconds]
  Total: 2546.094  # ━━━━━━━━━━━━━━━━━━━━━━━━━━━━━━━━━━━━━━━━━━━━━━━━━━━━━━━━
  Init:    11.234  # 
  SCF:    857.527  # ━━━━━━━━━━━━━━━━━━━

Max RSS: 1605.645  # MiB
