#  __  _  _
# | _ |_)|_||  |
# |__||  | ||/\| - 24.1.0

User:   s194113@n-62-29-13
Date:   Tue Apr 23 14:43:01 2024
Arch:   x86_64
Pid:    31044
CWD:    /zhome/87/8/147075/10302/10302_NM/NiI2/V_con
Python: 3.8.5
gpaw:   /zhome/87/8/147075/venv-name/gpaw/gpaw (10808453a8)
_gpaw:  /zhome/87/8/147075/venv-name/gpaw/
        _gpaw.cpython-38-x86_64-linux-gnu.so (10808453a8)
ase:    /zhome/87/8/147075/venv-name/ase/ase (version 3.23.0b1-c36115a2db)
numpy:  /zhome/87/8/147075/venv-name/lib/python3.8/site-packages/numpy (version 1.24.4)
scipy:  /zhome/87/8/147075/venv-name/lib/python3.8/site-packages/scipy (version 1.10.1)
libxc:  4.3.4
units:  Angstrom and eV
cores: 12
OpenMP: False
OMP_NUM_THREADS: 1

---
input parameters:
  kpts: 
    density: 6.0
    gamma: True
  magmoms: [[1, 0, 0], [0, 0, 0], [0, 0, 0]]
  mixer: 
    backend: 'pulay'
    beta: 0.05
    method: 'sum'
    nmaxold: 5
    weight: 100
  mode: 
    name: 'pw'
    ecut: 600
    qspiral: array([0.0952381, 0.0952381, 0.       ])
  parallel: 
    kpt: None
    domain: 1
    band: 1
    order: 'kdb'
    stridebands: False
    augment_grids: False
    sl_auto: False
    sl_default: None
    sl_diagonalize: None
    sl_inverse_cholesky: None
    sl_lcao: None
    sl_lrtddft: None
    use_elpa: False
    elpasolver: '2stage'
    buffer_size: None
    gpu: False
  symmetry: 
    point_group: False
    time_reversal: False
  xc: 
    name: 'LDA'

#                        
#                        
#                        
#                        
#                        
#              I         
#                        
#        Ni              
#          I             
#                        
#                        
#                        
#                        
#                        

atoms: [  # symbols, positions [Ang] and initial magnetic moments
  [ Ni, [   0.000000,    0.000000,    8.513573], [ 1.000,  0.000,  0.000]], # 0
  [  I, [   1.985000,    1.146040,   10.027147], [ 0.000,  0.000,  0.000]], # 1
  [  I, [  -0.000000,    2.292081,    7.000000], [ 0.000,  0.000,  0.000]]] # 2

cell: [  # Ang
#     x            y            z
  [   3.970000,    0.000000,    0.000000],
  [  -1.985000,    3.438121,    0.000000],
  [   0.000000,   -0.000000,   17.027147]]

periodic: [True      , True      , False     ]
lengths:  [  3.970000,   3.970000,  17.027147]  # Ang
angles:   [ 90.000000,  90.000000, 120.000000]

symmetry:
  number of symmetries: 1
  rotations: [
    [[ 1,  0,  0], [ 0,  1,  0], [ 0,  0,  1]]]

bz sampling:
  number of bz points: 121
  number of ibz points: 121
  monkhorst-pack size: [11, 11, 1]
  monkhorst-pack shift: [0, 0, 0]
  points and weights: [
    [[ -0.45454545,  -0.45454545,   0.00000000], 0.00826446],  # 0
    [[ -0.45454545,  -0.36363636,   0.00000000], 0.00826446],  # 1
    [[ -0.45454545,  -0.27272727,   0.00000000], 0.00826446],  # 2
    [[ -0.45454545,  -0.18181818,   0.00000000], 0.00826446],  # 3
    [[ -0.45454545,  -0.09090909,   0.00000000], 0.00826446],  # 4
    [[ -0.45454545,   0.00000000,   0.00000000], 0.00826446],  # 5
    [[ -0.45454545,   0.09090909,   0.00000000], 0.00826446],  # 6
    [[ -0.45454545,   0.18181818,   0.00000000], 0.00826446],  # 7
    [[ -0.45454545,   0.27272727,   0.00000000], 0.00826446],  # 8
    [[ -0.45454545,   0.36363636,   0.00000000], 0.00826446],  # 9
    # ...
    [[  0.45454545,   0.45454545,   0.00000000], 0.00826446]]  # 120

plane wave coefficients: 7794
cutoff: 600.0 eV

spin-components: 4  # (non-collinear spins)
bands: 40
valence electrons: 30.0
spin-degeneracy: 1
dtype: complex128

memory:
    wave functions: 1_203_417_600  # bytes  (100_284_800 per core)

parallelization:
    kpt:    12
    domain: 1
    band:   1

density:
  components: 4
  grid points: [24 24 98]
  charge: 0.0  # |e|

potential:
  grid points: [24 24 98]

species:
  Ni:
    name: Nickel
    id: 1802175e8de9ea26d9f4394ec1a7d564
    Z: 28.0
    valence: 16
    core: 12
    charge: 0.0
    file: /zhome/86/d/1666/PAW/gpaw-setups-0.9.20000/Ni.LDA.gz
    compensation charges: {type: gauss,
                           rc: 0.36,
                           lmax: 2}
    cutoffs: {filter: 2.14,
              core: 1.98}
    valence states:
      #              energy  rcut
      - 4s(2.00)    -5.858   1.164
      - 3p(6.00)   -71.266   1.207
      - 4p(0.00)    -1.338   1.207
      - 3d(8.00)    -9.141   1.138
      -  s          21.353   1.164
      -  d          18.071   1.138
  
    # Using partial waves for Ni as LCAO basis

  I:
    name: Iodine
    id: b559721c0c096a7b4c8fc0e0f4de5cf4
    Z: 53.0
    valence: 7
    core: 46
    charge: 0.0
    file: /zhome/86/d/1666/PAW/gpaw-setups-0.9.20000/I.LDA.gz
    compensation charges: {type: gauss,
                           rc: 0.37,
                           lmax: 2}
    cutoffs: {filter: 2.06,
              core: 2.90}
    valence states:
      #              energy  rcut
      - 5s(2.00)   -17.626   1.164
      - 5p(5.00)    -7.241   1.164
      -  s           9.585   1.164
      -  p          19.970   1.164
      -  d           0.000   1.164
  
    # Using partial waves for I as LCAO basis

Reference energy: -428067.566327  # eV

eigensolver:
  name: 'Davidson'
  niter: 2
  converge_bands: 'occupied'
Density mixing:
  Method: sum
  Backend: pulay
  Linear mixing parameter: 0.05
  old densities: 5
  Damping of long wavelength oscillations: 100
occupation numbers:
  Fermi-Dirac:
    width: 0.1000  # eV
  

poisson solver:
  ecut: 4800.0  # eV

xc functional:
  name: None

convergence criteria:
- Maximum [total energy] change in last 3 cyles: 0.0005 eV / valence electron
- Maximum integral of absolute [dens]ity change: 0.0001 electrons / valence electron
- Maximum integral of absolute [eigenst]ate change: 4e-08 eV^2 / valence electron
maximum number of iterations: 333

#      iter     time        total  log10-change:
#                          energy   eigst   dens
# iter:   1 14:43:30   -13.889550                  +1.0,+0.0,+0.0
# iter:   2 14:43:48   -12.692665   -0.38  -1.31   +1.0,+0.0,+0.0
# iter:   3 14:44:06   -12.241798   -0.68  -1.45   +1.2,+0.0,+0.0
# iter:   4 14:44:25   -12.301351   -1.37  -1.68   +1.3,+0.0,+0.0
# iter:   5 14:44:43   -12.545412   -1.48  -1.66   +1.4,+0.0,-0.0
# iter:   6 14:45:02   -12.317734   -1.70  -1.75   +1.5,+0.0,-0.0
# iter:   7 14:45:20   -12.309531   -2.07  -2.16   +1.5,+0.0,-0.0
# iter:   8 14:45:38   -12.305253c  -2.27  -2.30   +1.6,+0.0,+0.0
# iter:   9 14:45:56   -12.306079c  -2.48  -2.66   +1.6,+0.0,-0.0
# iter:  10 14:46:15   -12.306995c  -2.72  -2.98   +1.6,+0.0,-0.0
# iter:  11 14:46:33   -12.311389c  -2.89  -2.93   +1.6,+0.0,-0.0
# iter:  12 14:46:51   -12.310319c  -3.00  -3.02   +1.6,+0.0,-0.0
# iter:  13 14:47:10   -12.310952c  -3.19  -3.49   +1.7,+0.0,-0.0
# iter:  14 14:47:28   -12.311380c  -3.35  -3.24   +1.7,+0.0,-0.0
# iter:  15 14:47:46   -12.311258c  -3.54  -3.61   +1.7,+0.0,-0.0
# iter:  16 14:48:05   -12.311224c  -3.69  -3.71   +1.7,+0.0,-0.0
# iter:  17 14:48:23   -12.311396c  -3.83  -3.75   +1.7,+0.0,-0.0
# iter:  18 14:48:41   -12.311205c  -3.97  -3.71   +1.7,+0.0,-0.0
# iter:  19 14:49:00   -12.311362c  -4.11  -3.73   +1.7,+0.0,-0.0
# iter:  20 14:49:18   -12.311366c  -4.24  -3.75   +1.7,+0.0,-0.0
# iter:  21 14:49:36   -12.311273c  -4.38  -3.74   +1.7,+0.0,-0.0
# iter:  22 14:49:55   -12.311283c  -4.52  -3.74   +1.7,+0.0,-0.0
# iter:  23 14:50:13   -12.311597c  -4.65  -3.74   +1.7,+0.0,-0.0
# iter:  24 14:50:31   -12.311454c  -4.79  -3.74   +1.7,+0.0,-0.0
# iter:  25 14:50:49   -12.311369c  -4.93  -3.74   +1.7,+0.0,-0.0
# iter:  26 14:51:07   -12.311719c  -5.01  -3.73   +1.7,+0.0,-0.0
# iter:  27 14:51:25   -12.311553c  -5.17  -3.74   +1.7,+0.0,-0.0
# iter:  28 14:51:43   -12.311782c  -5.32  -3.65   +1.7,+0.0,-0.0
# iter:  29 14:52:01   -12.312132c  -5.38  -3.77   +1.7,+0.0,-0.0
# iter:  30 14:52:20   -12.312271c  -5.55  -3.74   +1.7,+0.0,-0.0
# iter:  31 14:52:38   -12.312188c  -5.78  -3.84   +1.7,+0.0,-0.0
# iter:  32 14:52:56   -12.312199c  -5.95  -3.87   +1.7,+0.0,-0.0
# iter:  33 14:53:14   -12.312946c  -5.29  -3.87   +1.7,+0.0,-0.0
# iter:  34 14:53:32   -12.312891c  -5.96  -4.23c  +1.7,+0.0,-0.0
# iter:  35 14:53:51   -12.312896c  -6.34  -4.46c  +1.7,+0.0,-0.0
# iter:  36 14:54:09   -12.312890c  -6.54  -4.58c  +1.7,+0.0,-0.0
# iter:  37 14:54:27   -12.312835c  -6.67  -4.59c  +1.7,+0.0,-0.0
# iter:  38 14:54:45   -12.312795c  -6.83  -4.74c  +1.7,+0.0,-0.0
# iter:  39 14:55:03   -12.312798c  -7.02  -4.75c  +1.7,+0.0,-0.0
# iter:  40 14:55:22   -12.312843c  -6.88  -4.75c  +1.7,+0.0,-0.0
# iter:  41 14:55:40   -12.312840c  -7.28  -4.75c  +1.7,+0.0,-0.0
# iter:  42 14:55:58   -12.312833c  -7.42c -4.76c  +1.7,+0.0,-0.0
scf_steps: 42
energies:  # eV
  coulomb:          -7.797980
  zero:              0.065566
  xc:              -14.922233
  external:          0.000000
  kinetic:          10.361807
  spinorbit:         0.000000
  entropy:          -0.039986
  total:           -12.332826
  extrapolated:    -12.312833

dipole moment: [-4.049651, -7.013694, -6.181009]  # |e|*Ang

total magnetic moment: [1.695835, 0.024716, -0.000000]

local magnetic moments: [
  [ 1.139691,  0.000000, -0.000000],  # Ni 0
  [ 0.132548, -0.090362, -0.000000],  # I  1
  [ 0.132540, -0.090373, -0.000000]]  # I  2


Fermi level: -1.675 eV

kpt = [-0.455, -0.455, 0.000], weight = 0.008:
  Band      eig [eV]   occ [0-1]
     0       -65.456       1.000
   ...
    22        -3.611       1.000
    23        -3.463       1.000
    24        -3.400       1.000
    25        -2.784       1.000
    26        -2.643       1.000
    27        -2.619       1.000
    28        -2.162       0.992
    29        -2.121       0.989
    30        -1.192       0.008
    31        -1.173       0.007
    32         1.070       0.000
    33         1.863       0.000
    34         3.125       0.000
    35         4.066       0.000
    36         4.136       0.000
    37         4.248       0.000
   ...
    39         4.777       0.000

kpt = [-0.455, -0.364, 0.000], weight = 0.008:
  Band      eig [eV]   occ [0-1]
     0       -65.456       1.000
   ...
    22        -3.546       1.000
    23        -3.429       1.000
    24        -3.318       1.000
    25        -2.782       1.000
    26        -2.636       1.000
    27        -2.580       1.000
    28        -2.295       0.998
    29        -2.139       0.990
    30        -1.332       0.031
    31        -1.217       0.010
    32         1.341       0.000
    33         2.115       0.000
    34         3.513       0.000
    35         4.046       0.000
    36         4.117       0.000
    37         4.384       0.000
   ...
    39         5.108       0.000

kpt = [-0.455, -0.273, 0.000], weight = 0.008:
  Band      eig [eV]   occ [0-1]
     0       -65.456       1.000
   ...
    22        -3.511       1.000
    23        -3.406       1.000
    24        -3.240       1.000
    25        -2.780       1.000
    26        -2.635       1.000
    27        -2.580       1.000
    28        -2.366       0.999
    29        -2.138       0.990
    30        -1.473       0.117
    31        -1.233       0.012
    32         1.881       0.000
    33         2.070       0.000
    34         3.827       0.000
    35         4.202       0.000
    36         4.463       0.000
    37         4.530       0.000
   ...
    39         5.218       0.000
(only showing first 3 out of 121 k-points)

Gap: 0.176 eV
Transition (v -> c):
  (s=0, k=60, n=29, [0.00, 0.00, 0.00]) -> (s=0, k=24, n=30, [-0.27, -0.27, 0.00])
# Writing to gsq-26.gpw (mode='')

---

timing:  # [seconds]
  Total: 777.390  # ━━━━━━━━━━━━━━━━━━━━━━━━━━━━━━━━━━━━━━━━━━━━━━━━━━━━━━━━━
  Init:   11.272  # ━
  SCF:   765.103  # ━━━━━━━━━━━━━━━━━━━━━━━━━━━━━━━━━━━━━━━━━━━━━━━━━━━━━━━━

Max RSS: 1605.645  # MiB
