#  __  _  _
# | _ |_)|_||  |
# |__||  | ||/\| - 24.1.0

User:   s194113@n-62-29-13
Date:   Tue Apr 23 11:50:29 2024
Arch:   x86_64
Pid:    31044
CWD:    /zhome/87/8/147075/10302/10302_NM/NiI2/V_con
Python: 3.8.5
gpaw:   /zhome/87/8/147075/venv-name/gpaw/gpaw (10808453a8)
_gpaw:  /zhome/87/8/147075/venv-name/gpaw/
        _gpaw.cpython-38-x86_64-linux-gnu.so (10808453a8)
ase:    /zhome/87/8/147075/venv-name/ase/ase (version 3.23.0b1-c36115a2db)
numpy:  /zhome/87/8/147075/venv-name/lib/python3.8/site-packages/numpy (version 1.24.4)
scipy:  /zhome/87/8/147075/venv-name/lib/python3.8/site-packages/scipy (version 1.10.1)
libxc:  4.3.4
units:  Angstrom and eV
cores: 12
OpenMP: False
OMP_NUM_THREADS: 1

---
input parameters:
  kpts: 
    density: 6.0
    gamma: True
  magmoms: [[1, 0, 0], [0, 0, 0], [0, 0, 0]]
  mixer: 
    backend: 'pulay'
    beta: 0.05
    method: 'sum'
    nmaxold: 5
    weight: 100
  mode: 
    name: 'pw'
    ecut: 600
    qspiral: array([0.36111111, 0.27777778, 0.        ])
  parallel: 
    kpt: None
    domain: 1
    band: 1
    order: 'kdb'
    stridebands: False
    augment_grids: False
    sl_auto: False
    sl_default: None
    sl_diagonalize: None
    sl_inverse_cholesky: None
    sl_lcao: None
    sl_lrtddft: None
    use_elpa: False
    elpasolver: '2stage'
    buffer_size: None
    gpu: False
  symmetry: 
    point_group: False
    time_reversal: False
  xc: 
    name: 'LDA'

#                        
#                        
#                        
#                        
#                        
#              I         
#                        
#        Ni              
#          I             
#                        
#                        
#                        
#                        
#                        

atoms: [  # symbols, positions [Ang] and initial magnetic moments
  [ Ni, [   0.000000,    0.000000,    8.513573], [ 1.000,  0.000,  0.000]], # 0
  [  I, [   1.985000,    1.146040,   10.027147], [ 0.000,  0.000,  0.000]], # 1
  [  I, [  -0.000000,    2.292081,    7.000000], [ 0.000,  0.000,  0.000]]] # 2

cell: [  # Ang
#     x            y            z
  [   3.970000,    0.000000,    0.000000],
  [  -1.985000,    3.438121,    0.000000],
  [   0.000000,   -0.000000,   17.027147]]

periodic: [True      , True      , False     ]
lengths:  [  3.970000,   3.970000,  17.027147]  # Ang
angles:   [ 90.000000,  90.000000, 120.000000]

symmetry:
  number of symmetries: 1
  rotations: [
    [[ 1,  0,  0], [ 0,  1,  0], [ 0,  0,  1]]]

bz sampling:
  number of bz points: 121
  number of ibz points: 121
  monkhorst-pack size: [11, 11, 1]
  monkhorst-pack shift: [0, 0, 0]
  points and weights: [
    [[ -0.45454545,  -0.45454545,   0.00000000], 0.00826446],  # 0
    [[ -0.45454545,  -0.36363636,   0.00000000], 0.00826446],  # 1
    [[ -0.45454545,  -0.27272727,   0.00000000], 0.00826446],  # 2
    [[ -0.45454545,  -0.18181818,   0.00000000], 0.00826446],  # 3
    [[ -0.45454545,  -0.09090909,   0.00000000], 0.00826446],  # 4
    [[ -0.45454545,   0.00000000,   0.00000000], 0.00826446],  # 5
    [[ -0.45454545,   0.09090909,   0.00000000], 0.00826446],  # 6
    [[ -0.45454545,   0.18181818,   0.00000000], 0.00826446],  # 7
    [[ -0.45454545,   0.27272727,   0.00000000], 0.00826446],  # 8
    [[ -0.45454545,   0.36363636,   0.00000000], 0.00826446],  # 9
    # ...
    [[  0.45454545,   0.45454545,   0.00000000], 0.00826446]]  # 120

plane wave coefficients: 7794
cutoff: 600.0 eV

spin-components: 4  # (non-collinear spins)
bands: 40
valence electrons: 30.0
spin-degeneracy: 1
dtype: complex128

memory:
    wave functions: 1_203_417_600  # bytes  (100_284_800 per core)

parallelization:
    kpt:    12
    domain: 1
    band:   1

density:
  components: 4
  grid points: [24 24 98]
  charge: 0.0  # |e|

potential:
  grid points: [24 24 98]

species:
  Ni:
    name: Nickel
    id: 1802175e8de9ea26d9f4394ec1a7d564
    Z: 28.0
    valence: 16
    core: 12
    charge: 0.0
    file: /zhome/86/d/1666/PAW/gpaw-setups-0.9.20000/Ni.LDA.gz
    compensation charges: {type: gauss,
                           rc: 0.36,
                           lmax: 2}
    cutoffs: {filter: 2.14,
              core: 1.98}
    valence states:
      #              energy  rcut
      - 4s(2.00)    -5.858   1.164
      - 3p(6.00)   -71.266   1.207
      - 4p(0.00)    -1.338   1.207
      - 3d(8.00)    -9.141   1.138
      -  s          21.353   1.164
      -  d          18.071   1.138
  
    # Using partial waves for Ni as LCAO basis

  I:
    name: Iodine
    id: b559721c0c096a7b4c8fc0e0f4de5cf4
    Z: 53.0
    valence: 7
    core: 46
    charge: 0.0
    file: /zhome/86/d/1666/PAW/gpaw-setups-0.9.20000/I.LDA.gz
    compensation charges: {type: gauss,
                           rc: 0.37,
                           lmax: 2}
    cutoffs: {filter: 2.06,
              core: 2.90}
    valence states:
      #              energy  rcut
      - 5s(2.00)   -17.626   1.164
      - 5p(5.00)    -7.241   1.164
      -  s           9.585   1.164
      -  p          19.970   1.164
      -  d           0.000   1.164
  
    # Using partial waves for I as LCAO basis

Reference energy: -428067.566327  # eV

eigensolver:
  name: 'Davidson'
  niter: 2
  converge_bands: 'occupied'
Density mixing:
  Method: sum
  Backend: pulay
  Linear mixing parameter: 0.05
  old densities: 5
  Damping of long wavelength oscillations: 100
occupation numbers:
  Fermi-Dirac:
    width: 0.1000  # eV
  

poisson solver:
  ecut: 4800.0  # eV

xc functional:
  name: None

convergence criteria:
- Maximum [total energy] change in last 3 cyles: 0.0005 eV / valence electron
- Maximum integral of absolute [dens]ity change: 0.0001 electrons / valence electron
- Maximum integral of absolute [eigenst]ate change: 4e-08 eV^2 / valence electron
maximum number of iterations: 333

#      iter     time        total  log10-change:
#                          energy   eigst   dens
# iter:   1 11:50:58   -12.774602                  +1.0,+0.0,+0.0
# iter:   2 11:51:17   -12.459201   +0.43  -1.31   +0.8,+0.0,-0.0
# iter:   3 11:51:35   -12.173816   -0.22  -1.45   +0.7,+0.0,+0.0
# iter:   4 11:51:53   -12.214208   -0.76  -1.68   +0.8,+0.0,+0.0
# iter:   5 11:52:12   -12.597586   -0.91  -1.68   +0.9,+0.0,+0.0
# iter:   6 11:52:30   -12.277396   -1.15  -1.68   +0.8,+0.0,-0.0
# iter:   7 11:52:48   -12.286929   -1.39  -2.20   +0.9,+0.0,+0.0
# iter:   8 11:53:06   -12.278488c  -1.54  -2.30   +0.9,+0.0,-0.0
# iter:   9 11:53:25   -12.279767c  -1.70  -2.69   +0.9,+0.0,+0.0
# iter:  10 11:53:43   -12.284348c  -1.84  -2.87   +1.0,+0.0,-0.0
# iter:  11 11:54:01   -12.290043c  -1.92  -2.83   +1.0,+0.0,-0.0
# iter:  12 11:54:20   -12.288158c  -2.12  -2.68   +1.0,+0.0,-0.0
# iter:  13 11:54:38   -12.288291c  -2.25  -3.20   +1.0,+0.0,-0.0
# iter:  14 11:54:56   -12.288937c  -2.37  -3.52   +1.0,+0.0,-0.0
# iter:  15 11:55:15   -12.288620c  -2.51  -3.28   +1.0,+0.0,-0.0
# iter:  16 11:55:33   -12.288925c  -2.63  -3.72   +1.0,+0.0,-0.0
# iter:  17 11:55:51   -12.289250c  -2.75  -3.65   +1.0,+0.0,-0.0
# iter:  18 11:56:09   -12.288964c  -2.87  -3.51   +1.0,+0.0,-0.0
# iter:  19 11:56:27   -12.288976c  -2.99  -3.66   +1.0,+0.0,-0.0
# iter:  20 11:56:45   -12.288880c  -3.11  -3.67   +1.0,+0.0,-0.0
# iter:  21 11:57:03   -12.289334c  -3.24  -3.66   +1.0,+0.0,-0.0
# iter:  22 11:57:22   -12.289204c  -3.35  -3.62   +1.0,+0.0,-0.0
# iter:  23 11:57:40   -12.289195c  -3.47  -3.64   +1.0,+0.0,-0.0
# iter:  24 11:57:58   -12.288941c  -3.59  -3.61   +1.0,+0.0,-0.0
# iter:  25 11:58:16   -12.289785c  -3.71  -3.64   +1.0,+0.0,-0.0
# iter:  26 11:58:34   -12.289813c  -3.84  -3.63   +1.0,+0.0,-0.0
# iter:  27 11:58:52   -12.290284c  -3.95  -3.65   +1.0,+0.0,-0.0
# iter:  28 11:59:10   -12.290112c  -4.08  -3.67   +1.0,+0.0,-0.0
# iter:  29 11:59:28   -12.290860c  -4.17  -3.76   +1.0,+0.0,-0.0
# iter:  30 11:59:47   -12.290882c  -4.31  -3.76   +1.0,+0.0,-0.0
# iter:  31 12:00:05   -12.291753c  -4.35  -3.81   +1.1,+0.0,-0.0
# iter:  32 12:00:23   -12.291819c  -4.53  -4.11c  +1.1,+0.0,-0.0
# iter:  33 12:00:41   -12.291875c  -4.65  -4.16c  +1.1,+0.0,-0.0
# iter:  34 12:00:59   -12.291887c  -4.77  -4.26c  +1.1,+0.0,-0.0
# iter:  35 12:01:17   -12.291875c  -4.90  -4.37c  +1.1,+0.0,-0.0
# iter:  36 12:01:35   -12.291896c  -5.02  -4.40c  +1.1,+0.0,-0.0
# iter:  37 12:01:54   -12.291953c  -5.14  -4.45c  +1.1,+0.0,-0.0
# iter:  38 12:02:12   -12.291912c  -5.26  -4.55c  +1.1,+0.0,-0.0
# iter:  39 12:02:30   -12.291906c  -5.38  -4.61c  +1.1,+0.0,-0.0
# iter:  40 12:02:48   -12.291942c  -5.49  -4.72c  +1.1,+0.0,-0.0
# iter:  41 12:03:06   -12.291959c  -5.61  -4.89c  +1.1,+0.0,-0.0
# iter:  42 12:03:24   -12.292011c  -5.72  -4.92c  +1.1,+0.0,-0.0
# iter:  43 12:03:42   -12.292020c  -5.84  -5.03c  +1.1,+0.0,-0.0
# iter:  44 12:04:00   -12.292012c  -5.97  -5.08c  +1.1,+0.0,-0.0
# iter:  45 12:04:19   -12.292016c  -6.09  -5.08c  +1.1,+0.0,-0.0
# iter:  46 12:04:37   -12.292013c  -6.21  -5.07c  +1.1,+0.0,-0.0
# iter:  47 12:04:55   -12.291982c  -6.33  -5.06c  +1.1,+0.0,-0.0
# iter:  48 12:05:13   -12.292011c  -6.43  -5.00c  +1.1,+0.0,-0.0
# iter:  49 12:05:31   -12.292023c  -6.56  -5.11c  +1.1,+0.0,-0.0
# iter:  50 12:05:49   -12.292016c  -6.67  -5.17c  +1.1,+0.0,-0.0
# iter:  51 12:06:07   -12.292014c  -6.79  -5.24c  +1.1,+0.0,-0.0
# iter:  52 12:06:26   -12.292029c  -6.90  -5.32c  +1.1,+0.0,-0.0
# iter:  53 12:06:44   -12.292027c  -7.02  -5.45c  +1.1,+0.0,-0.0
# iter:  54 12:07:02   -12.292024c  -7.14  -5.56c  +1.1,+0.0,-0.0
# iter:  55 12:07:20   -12.292025c  -7.26  -5.69c  +1.1,+0.0,-0.0
# iter:  56 12:07:38   -12.292026c  -7.38  -5.76c  +1.1,+0.0,-0.0
# iter:  57 12:07:57   -12.292031c  -7.50c -5.77c  +1.1,+0.0,-0.0
scf_steps: 57
energies:  # eV
  coulomb:          -7.680654
  zero:              0.066745
  xc:              -14.872968
  external:          0.000000
  kinetic:          10.216661
  spinorbit:         0.000000
  entropy:          -0.043631
  total:           -12.313847
  extrapolated:    -12.292031

dipole moment: [-3.380354, -5.938563, -0.696986]  # |e|*Ang

total magnetic moment: [1.071544, 0.001745, -0.000000]

local magnetic moments: [
  [ 1.111628,  0.000000, -0.000000],  # Ni 0
  [-0.016586, -0.000017, -0.000000],  # I  1
  [ 0.010649, -0.012717, -0.000000]]  # I  2


Fermi level: -1.693 eV

kpt = [-0.455, -0.455, 0.000], weight = 0.008:
  Band      eig [eV]   occ [0-1]
     0       -65.432       1.000
   ...
    22        -3.503       1.000
    23        -3.309       1.000
    24        -3.273       1.000
    25        -2.833       1.000
    26        -2.612       1.000
    27        -2.596       1.000
    28        -2.332       0.998
    29        -2.274       0.997
    30        -1.449       0.080
    31        -1.389       0.046
    32         1.968       0.000
    33         2.125       0.000
    34         4.049       0.000
    35         4.179       0.000
    36         4.478       0.000
    37         4.702       0.000
   ...
    39         5.414       0.000

kpt = [-0.455, -0.364, 0.000], weight = 0.008:
  Band      eig [eV]   occ [0-1]
     0       -65.432       1.000
   ...
    22        -3.414       1.000
    23        -3.378       1.000
    24        -3.267       1.000
    25        -2.897       1.000
    26        -2.676       1.000
    27        -2.595       1.000
    28        -2.241       0.996
    29        -2.118       0.986
    30        -1.423       0.063
    31        -1.276       0.015
    32         1.656       0.000
    33         2.160       0.000
    34         3.682       0.000
    35         3.859       0.000
    36         4.284       0.000
    37         4.494       0.000
   ...
    39         5.013       0.000

kpt = [-0.455, -0.273, 0.000], weight = 0.008:
  Band      eig [eV]   occ [0-1]
     0       -65.432       1.000
   ...
    22        -3.472       1.000
    23        -3.359       1.000
    24        -3.233       1.000
    25        -2.877       1.000
    26        -2.727       1.000
    27        -2.570       1.000
    28        -2.142       0.989
    29        -1.949       0.928
    30        -1.415       0.058
    31        -1.163       0.005
    32         1.351       0.000
    33         1.998       0.000
    34         3.322       0.000
    35         3.647       0.000
    36         3.893       0.000
    37         4.139       0.000
   ...
    39         4.671       0.000
(only showing first 3 out of 121 k-points)

Gap: 0.412 eV
Transition (v -> c):
  (s=0, k=77, n=29, [0.18, -0.45, 0.00]) -> (s=0, k=55, n=30, [0.00, -0.45, 0.00])
# Writing to gsq-15.gpw (mode='')

---

timing:  # [seconds]
  Total: 14072.260  # ━━━━━━━━━━━━━━━━━━━━━━━━━━━━━━━━━━━━━━━━━━━━━━━━━━━━━━━
  Init:     11.396  # 
  SCF:    1035.696  # ━━━━

Max RSS: 1605.645  # MiB
