#  __  _  _
# | _ |_)|_||  |
# |__||  | ||/\| - 24.1.0

User:   s194113@n-62-29-13
Date:   Tue Apr 23 12:58:14 2024
Arch:   x86_64
Pid:    31044
CWD:    /zhome/87/8/147075/10302/10302_NM/NiI2/V_con
Python: 3.8.5
gpaw:   /zhome/87/8/147075/venv-name/gpaw/gpaw (10808453a8)
_gpaw:  /zhome/87/8/147075/venv-name/gpaw/
        _gpaw.cpython-38-x86_64-linux-gnu.so (10808453a8)
ase:    /zhome/87/8/147075/venv-name/ase/ase (version 3.23.0b1-c36115a2db)
numpy:  /zhome/87/8/147075/venv-name/lib/python3.8/site-packages/numpy (version 1.24.4)
scipy:  /zhome/87/8/147075/venv-name/lib/python3.8/site-packages/scipy (version 1.10.1)
libxc:  4.3.4
units:  Angstrom and eV
cores: 12
OpenMP: False
OMP_NUM_THREADS: 1

---
input parameters:
  kpts: 
    density: 6.0
    gamma: True
  magmoms: [[1, 0, 0], [0, 0, 0], [0, 0, 0]]
  mixer: 
    backend: 'pulay'
    beta: 0.05
    method: 'sum'
    nmaxold: 5
    weight: 100
  mode: 
    name: 'pw'
    ecut: 600
    qspiral: array([0.26190476, 0.26190476, 0.        ])
  parallel: 
    kpt: None
    domain: 1
    band: 1
    order: 'kdb'
    stridebands: False
    augment_grids: False
    sl_auto: False
    sl_default: None
    sl_diagonalize: None
    sl_inverse_cholesky: None
    sl_lcao: None
    sl_lrtddft: None
    use_elpa: False
    elpasolver: '2stage'
    buffer_size: None
    gpu: False
  symmetry: 
    point_group: False
    time_reversal: False
  xc: 
    name: 'LDA'

#                        
#                        
#                        
#                        
#                        
#              I         
#                        
#        Ni              
#          I             
#                        
#                        
#                        
#                        
#                        

atoms: [  # symbols, positions [Ang] and initial magnetic moments
  [ Ni, [   0.000000,    0.000000,    8.513573], [ 1.000,  0.000,  0.000]], # 0
  [  I, [   1.985000,    1.146040,   10.027147], [ 0.000,  0.000,  0.000]], # 1
  [  I, [  -0.000000,    2.292081,    7.000000], [ 0.000,  0.000,  0.000]]] # 2

cell: [  # Ang
#     x            y            z
  [   3.970000,    0.000000,    0.000000],
  [  -1.985000,    3.438121,    0.000000],
  [   0.000000,   -0.000000,   17.027147]]

periodic: [True      , True      , False     ]
lengths:  [  3.970000,   3.970000,  17.027147]  # Ang
angles:   [ 90.000000,  90.000000, 120.000000]

symmetry:
  number of symmetries: 1
  rotations: [
    [[ 1,  0,  0], [ 0,  1,  0], [ 0,  0,  1]]]

bz sampling:
  number of bz points: 121
  number of ibz points: 121
  monkhorst-pack size: [11, 11, 1]
  monkhorst-pack shift: [0, 0, 0]
  points and weights: [
    [[ -0.45454545,  -0.45454545,   0.00000000], 0.00826446],  # 0
    [[ -0.45454545,  -0.36363636,   0.00000000], 0.00826446],  # 1
    [[ -0.45454545,  -0.27272727,   0.00000000], 0.00826446],  # 2
    [[ -0.45454545,  -0.18181818,   0.00000000], 0.00826446],  # 3
    [[ -0.45454545,  -0.09090909,   0.00000000], 0.00826446],  # 4
    [[ -0.45454545,   0.00000000,   0.00000000], 0.00826446],  # 5
    [[ -0.45454545,   0.09090909,   0.00000000], 0.00826446],  # 6
    [[ -0.45454545,   0.18181818,   0.00000000], 0.00826446],  # 7
    [[ -0.45454545,   0.27272727,   0.00000000], 0.00826446],  # 8
    [[ -0.45454545,   0.36363636,   0.00000000], 0.00826446],  # 9
    # ...
    [[  0.45454545,   0.45454545,   0.00000000], 0.00826446]]  # 120

plane wave coefficients: 7794
cutoff: 600.0 eV

spin-components: 4  # (non-collinear spins)
bands: 40
valence electrons: 30.0
spin-degeneracy: 1
dtype: complex128

memory:
    wave functions: 1_203_417_600  # bytes  (100_284_800 per core)

parallelization:
    kpt:    12
    domain: 1
    band:   1

density:
  components: 4
  grid points: [24 24 98]
  charge: 0.0  # |e|

potential:
  grid points: [24 24 98]

species:
  Ni:
    name: Nickel
    id: 1802175e8de9ea26d9f4394ec1a7d564
    Z: 28.0
    valence: 16
    core: 12
    charge: 0.0
    file: /zhome/86/d/1666/PAW/gpaw-setups-0.9.20000/Ni.LDA.gz
    compensation charges: {type: gauss,
                           rc: 0.36,
                           lmax: 2}
    cutoffs: {filter: 2.14,
              core: 1.98}
    valence states:
      #              energy  rcut
      - 4s(2.00)    -5.858   1.164
      - 3p(6.00)   -71.266   1.207
      - 4p(0.00)    -1.338   1.207
      - 3d(8.00)    -9.141   1.138
      -  s          21.353   1.164
      -  d          18.071   1.138
  
    # Using partial waves for Ni as LCAO basis

  I:
    name: Iodine
    id: b559721c0c096a7b4c8fc0e0f4de5cf4
    Z: 53.0
    valence: 7
    core: 46
    charge: 0.0
    file: /zhome/86/d/1666/PAW/gpaw-setups-0.9.20000/I.LDA.gz
    compensation charges: {type: gauss,
                           rc: 0.37,
                           lmax: 2}
    cutoffs: {filter: 2.06,
              core: 2.90}
    valence states:
      #              energy  rcut
      - 5s(2.00)   -17.626   1.164
      - 5p(5.00)    -7.241   1.164
      -  s           9.585   1.164
      -  p          19.970   1.164
      -  d           0.000   1.164
  
    # Using partial waves for I as LCAO basis

Reference energy: -428067.566327  # eV

eigensolver:
  name: 'Davidson'
  niter: 2
  converge_bands: 'occupied'
Density mixing:
  Method: sum
  Backend: pulay
  Linear mixing parameter: 0.05
  old densities: 5
  Damping of long wavelength oscillations: 100
occupation numbers:
  Fermi-Dirac:
    width: 0.1000  # eV
  

poisson solver:
  ecut: 4800.0  # eV

xc functional:
  name: None

convergence criteria:
- Maximum [total energy] change in last 3 cyles: 0.0005 eV / valence electron
- Maximum integral of absolute [dens]ity change: 0.0001 electrons / valence electron
- Maximum integral of absolute [eigenst]ate change: 4e-08 eV^2 / valence electron
maximum number of iterations: 333

#      iter     time        total  log10-change:
#                          energy   eigst   dens
# iter:   1 12:58:42   -13.196238                  +1.0,+0.0,+0.0
# iter:   2 12:59:00   -12.550517   +0.26  -1.31   +0.8,+0.0,-0.0
# iter:   3 12:59:18   -12.196844   -0.34  -1.45   +0.8,+0.0,-0.0
# iter:   4 12:59:37   -12.249577   -0.91  -1.68   +0.9,+0.0,-0.0
# iter:   5 12:59:55   -12.587720   -1.05  -1.67   +1.0,+0.0,-0.0
# iter:   6 13:00:13   -12.283187   -1.27  -1.70   +1.0,+0.0,+0.0
# iter:   7 13:00:31   -12.284442   -1.53  -2.19   +1.0,+0.0,-0.0
# iter:   8 13:00:48   -12.281565c  -1.70  -2.33   +1.1,+0.0,-0.0
# iter:   9 13:01:07   -12.282216c  -1.85  -2.63   +1.1,+0.0,-0.0
# iter:  10 13:01:25   -12.284508c  -2.00  -2.95   +1.1,+0.0,-0.0
# iter:  11 13:01:42   -12.288992c  -2.14  -2.88   +1.1,+0.0,-0.0
# iter:  12 13:02:00   -12.290053c  -2.29  -3.44   +1.2,+0.0,-0.0
# iter:  13 13:02:18   -12.290239c  -2.42  -3.63   +1.2,+0.0,-0.0
# iter:  14 13:02:36   -12.290379c  -2.55  -3.67   +1.2,+0.0,+0.0
# iter:  15 13:02:54   -12.290715c  -2.67  -3.71   +1.2,+0.0,+0.0
# iter:  16 13:03:12   -12.290992c  -2.80  -3.72   +1.2,+0.0,+0.0
# iter:  17 13:03:30   -12.290839c  -2.92  -3.62   +1.2,+0.0,-0.0
# iter:  18 13:03:48   -12.290755c  -3.04  -3.70   +1.2,+0.0,+0.0
# iter:  19 13:04:05   -12.290670c  -3.17  -3.75   +1.2,+0.0,-0.0
# iter:  20 13:04:23   -12.291332c  -3.29  -3.74   +1.2,+0.0,-0.0
# iter:  21 13:04:41   -12.291215c  -3.41  -3.72   +1.2,+0.0,-0.0
# iter:  22 13:04:59   -12.291384c  -3.53  -3.71   +1.2,+0.0,+0.0
# iter:  23 13:05:17   -12.291159c  -3.66  -3.68   +1.2,+0.0,-0.0
# iter:  24 13:05:35   -12.291775c  -3.77  -3.67   +1.2,+0.0,+0.0
# iter:  25 13:05:53   -12.292478c  -3.87  -3.75   +1.2,+0.0,+0.0
# iter:  26 13:06:11   -12.292986c  -4.00  -3.86   +1.2,+0.0,+0.0
# iter:  27 13:06:29   -12.293045c  -4.13  -4.44c  +1.2,+0.0,+0.0
# iter:  28 13:06:47   -12.293026c  -4.26  -4.47c  +1.2,+0.0,+0.0
# iter:  29 13:07:05   -12.293183c  -4.38  -4.44c  +1.2,+0.0,+0.0
# iter:  30 13:07:23   -12.293272c  -4.50  -4.48c  +1.2,+0.0,+0.0
# iter:  31 13:07:41   -12.293248c  -4.63  -4.55c  +1.2,+0.0,+0.0
# iter:  32 13:07:58   -12.293260c  -4.75  -4.70c  +1.2,+0.0,+0.0
# iter:  33 13:08:16   -12.293281c  -4.88  -4.72c  +1.2,+0.0,+0.0
# iter:  34 13:08:34   -12.293303c  -5.00  -4.76c  +1.2,+0.0,+0.0
# iter:  35 13:08:52   -12.293310c  -5.13  -4.90c  +1.2,+0.0,+0.0
# iter:  36 13:09:10   -12.293312c  -5.25  -4.92c  +1.2,+0.0,+0.0
# iter:  37 13:09:28   -12.293308c  -5.38  -4.95c  +1.2,+0.0,+0.0
# iter:  38 13:09:46   -12.293275c  -5.50  -4.94c  +1.2,+0.0,+0.0
# iter:  39 13:10:04   -12.293243c  -5.63  -5.11c  +1.2,+0.0,+0.0
# iter:  40 13:10:22   -12.293241c  -5.76  -5.55c  +1.2,+0.0,+0.0
# iter:  41 13:10:39   -12.293237c  -5.89  -5.60c  +1.2,+0.0,+0.0
# iter:  42 13:10:58   -12.293234c  -6.01  -5.62c  +1.2,+0.0,+0.0
# iter:  43 13:11:16   -12.293234c  -6.14  -5.66c  +1.2,+0.0,+0.0
# iter:  44 13:11:33   -12.293231c  -6.26  -5.80c  +1.2,+0.0,+0.0
# iter:  45 13:11:51   -12.293232c  -6.39  -6.03c  +1.2,+0.0,+0.0
# iter:  46 13:12:09   -12.293232c  -6.53  -6.10c  +1.2,+0.0,+0.0
# iter:  47 13:12:27   -12.293228c  -6.66  -6.13c  +1.2,+0.0,+0.0
# iter:  48 13:12:45   -12.293227c  -6.79  -6.21c  +1.2,+0.0,+0.0
# iter:  49 13:13:03   -12.293227c  -6.92  -6.27c  +1.2,+0.0,+0.0
# iter:  50 13:13:21   -12.293226c  -7.05  -6.29c  +1.2,+0.0,+0.0
# iter:  51 13:13:39   -12.293227c  -7.17  -6.31c  +1.2,+0.0,+0.0
# iter:  52 13:13:57   -12.293227c  -7.31  -6.32c  +1.2,+0.0,+0.0
# iter:  53 13:14:14   -12.293227c  -7.44c -6.32c  +1.2,+0.0,+0.0
scf_steps: 53
energies:  # eV
  coulomb:          -7.688934
  zero:              0.066750
  xc:              -14.876827
  external:          0.000000
  kinetic:          10.227772
  spinorbit:         0.000000
  entropy:          -0.043976
  total:           -12.315214
  extrapolated:    -12.293227

dipole moment: [-3.555057, -6.156763, -1.911896]  # |e|*Ang

total magnetic moment: [1.203535, 0.013274, 0.000000]

local magnetic moments: [
  [ 1.114074,  0.000000,  0.000000],  # Ni 0
  [-0.003625, -0.048871,  0.000000],  # I  1
  [-0.003699, -0.048865,  0.000000]]  # I  2


Fermi level: -1.689 eV

kpt = [-0.455, -0.455, 0.000], weight = 0.008:
  Band      eig [eV]   occ [0-1]
     0       -65.435       1.000
   ...
    22        -3.516       1.000
    23        -3.330       1.000
    24        -3.282       1.000
    25        -2.827       1.000
    26        -2.629       1.000
    27        -2.595       1.000
    28        -2.296       0.998
    29        -2.242       0.996
    30        -1.430       0.070
    31        -1.357       0.035
    32         1.755       0.000
    33         2.107       0.000
    34         4.146       0.000
    35         4.334       0.000
    36         4.443       0.000
    37         4.497       0.000
   ...
    39         4.725       0.000

kpt = [-0.455, -0.364, 0.000], weight = 0.008:
  Band      eig [eV]   occ [0-1]
     0       -65.435       1.000
   ...
    22        -3.457       1.000
    23        -3.378       1.000
    24        -3.322       1.000
    25        -2.938       1.000
    26        -2.677       1.000
    27        -2.621       1.000
    28        -2.212       0.995
    29        -2.042       0.972
    30        -1.370       0.039
    31        -1.232       0.010
    32         1.306       0.000
    33         2.061       0.000
    34         3.456       0.000
    35         3.943       0.000
    36         4.063       0.000
    37         4.372       0.000
   ...
    39         5.134       0.000

kpt = [-0.455, -0.273, 0.000], weight = 0.008:
  Band      eig [eV]   occ [0-1]
     0       -65.435       1.000
   ...
    22        -3.464       1.000
    23        -3.394       1.000
    24        -3.294       1.000
    25        -2.958       1.000
    26        -2.719       1.000
    27        -2.604       1.000
    28        -2.118       0.986
    29        -1.919       0.909
    30        -1.373       0.041
    31        -1.130       0.004
    32         1.208       0.000
    33         1.808       0.000
    34         3.198       0.000
    35         3.776       0.000
    36         3.867       0.000
    37         4.274       0.000
   ...
    39         4.594       0.000
(only showing first 3 out of 121 k-points)

Gap: 0.369 eV
Transition (v -> c):
  (s=0, k=103, n=29, [0.36, -0.09, 0.00]) -> (s=0, k=10, n=30, [-0.45, 0.45, 0.00])
# Writing to gsq-19.gpw (mode='')

