#  __  _  _
# | _ |_)|_||  |
# |__||  | ||/\| - 24.1.0

User:   s194113@n-62-29-13
Date:   Tue Apr 23 08:34:17 2024
Arch:   x86_64
Pid:    31044
CWD:    /zhome/87/8/147075/10302/10302_NM/NiI2/V_con
Python: 3.8.5
gpaw:   /zhome/87/8/147075/venv-name/gpaw/gpaw (10808453a8)
_gpaw:  /zhome/87/8/147075/venv-name/gpaw/
        _gpaw.cpython-38-x86_64-linux-gnu.so (10808453a8)
ase:    /zhome/87/8/147075/venv-name/ase/ase (version 3.23.0b1-c36115a2db)
numpy:  /zhome/87/8/147075/venv-name/lib/python3.8/site-packages/numpy (version 1.24.4)
scipy:  /zhome/87/8/147075/venv-name/lib/python3.8/site-packages/scipy (version 1.10.1)
libxc:  4.3.4
units:  Angstrom and eV
cores: 12
OpenMP: False
OMP_NUM_THREADS: 1

---
input parameters:
  kpts: 
    density: 6.0
    gamma: True
  magmoms: [[1, 0, 0], [0, 0, 0], [0, 0, 0]]
  mixer: 
    backend: 'pulay'
    beta: 0.05
    method: 'sum'
    nmaxold: 5
    weight: 100
  mode: 
    name: 'pw'
    ecut: 600
    qspiral: array([0.1, 0. , 0. ])
  parallel: 
    kpt: None
    domain: 1
    band: 1
    order: 'kdb'
    stridebands: False
    augment_grids: False
    sl_auto: False
    sl_default: None
    sl_diagonalize: None
    sl_inverse_cholesky: None
    sl_lcao: None
    sl_lrtddft: None
    use_elpa: False
    elpasolver: '2stage'
    buffer_size: None
    gpu: False
  symmetry: 
    point_group: False
    time_reversal: False
  xc: 
    name: 'LDA'

#                        
#                        
#                        
#                        
#                        
#              I         
#                        
#        Ni              
#          I             
#                        
#                        
#                        
#                        
#                        

atoms: [  # symbols, positions [Ang] and initial magnetic moments
  [ Ni, [   0.000000,    0.000000,    8.513573], [ 1.000,  0.000,  0.000]], # 0
  [  I, [   1.985000,    1.146040,   10.027147], [ 0.000,  0.000,  0.000]], # 1
  [  I, [  -0.000000,    2.292081,    7.000000], [ 0.000,  0.000,  0.000]]] # 2

cell: [  # Ang
#     x            y            z
  [   3.970000,    0.000000,    0.000000],
  [  -1.985000,    3.438121,    0.000000],
  [   0.000000,   -0.000000,   17.027147]]

periodic: [True      , True      , False     ]
lengths:  [  3.970000,   3.970000,  17.027147]  # Ang
angles:   [ 90.000000,  90.000000, 120.000000]

symmetry:
  number of symmetries: 1
  rotations: [
    [[ 1,  0,  0], [ 0,  1,  0], [ 0,  0,  1]]]

bz sampling:
  number of bz points: 121
  number of ibz points: 121
  monkhorst-pack size: [11, 11, 1]
  monkhorst-pack shift: [0, 0, 0]
  points and weights: [
    [[ -0.45454545,  -0.45454545,   0.00000000], 0.00826446],  # 0
    [[ -0.45454545,  -0.36363636,   0.00000000], 0.00826446],  # 1
    [[ -0.45454545,  -0.27272727,   0.00000000], 0.00826446],  # 2
    [[ -0.45454545,  -0.18181818,   0.00000000], 0.00826446],  # 3
    [[ -0.45454545,  -0.09090909,   0.00000000], 0.00826446],  # 4
    [[ -0.45454545,   0.00000000,   0.00000000], 0.00826446],  # 5
    [[ -0.45454545,   0.09090909,   0.00000000], 0.00826446],  # 6
    [[ -0.45454545,   0.18181818,   0.00000000], 0.00826446],  # 7
    [[ -0.45454545,   0.27272727,   0.00000000], 0.00826446],  # 8
    [[ -0.45454545,   0.36363636,   0.00000000], 0.00826446],  # 9
    # ...
    [[  0.45454545,   0.45454545,   0.00000000], 0.00826446]]  # 120

plane wave coefficients: 7794
cutoff: 600.0 eV

spin-components: 4  # (non-collinear spins)
bands: 40
valence electrons: 30.0
spin-degeneracy: 1
dtype: complex128

memory:
    wave functions: 1_203_417_600  # bytes  (100_284_800 per core)

parallelization:
    kpt:    12
    domain: 1
    band:   1

density:
  components: 4
  grid points: [24 24 98]
  charge: 0.0  # |e|

potential:
  grid points: [24 24 98]

species:
  Ni:
    name: Nickel
    id: 1802175e8de9ea26d9f4394ec1a7d564
    Z: 28.0
    valence: 16
    core: 12
    charge: 0.0
    file: /zhome/86/d/1666/PAW/gpaw-setups-0.9.20000/Ni.LDA.gz
    compensation charges: {type: gauss,
                           rc: 0.36,
                           lmax: 2}
    cutoffs: {filter: 2.14,
              core: 1.98}
    valence states:
      #              energy  rcut
      - 4s(2.00)    -5.858   1.164
      - 3p(6.00)   -71.266   1.207
      - 4p(0.00)    -1.338   1.207
      - 3d(8.00)    -9.141   1.138
      -  s          21.353   1.164
      -  d          18.071   1.138
  
    # Using partial waves for Ni as LCAO basis

  I:
    name: Iodine
    id: b559721c0c096a7b4c8fc0e0f4de5cf4
    Z: 53.0
    valence: 7
    core: 46
    charge: 0.0
    file: /zhome/86/d/1666/PAW/gpaw-setups-0.9.20000/I.LDA.gz
    compensation charges: {type: gauss,
                           rc: 0.37,
                           lmax: 2}
    cutoffs: {filter: 2.06,
              core: 2.90}
    valence states:
      #              energy  rcut
      - 5s(2.00)   -17.626   1.164
      - 5p(5.00)    -7.241   1.164
      -  s           9.585   1.164
      -  p          19.970   1.164
      -  d           0.000   1.164
  
    # Using partial waves for I as LCAO basis

Reference energy: -428067.566327  # eV

eigensolver:
  name: 'Davidson'
  niter: 2
  converge_bands: 'occupied'
Density mixing:
  Method: sum
  Backend: pulay
  Linear mixing parameter: 0.05
  old densities: 5
  Damping of long wavelength oscillations: 100
occupation numbers:
  Fermi-Dirac:
    width: 0.1000  # eV
  

poisson solver:
  ecut: 4800.0  # eV

xc functional:
  name: None

convergence criteria:
- Maximum [total energy] change in last 3 cyles: 0.0005 eV / valence electron
- Maximum integral of absolute [dens]ity change: 0.0001 electrons / valence electron
- Maximum integral of absolute [eigenst]ate change: 4e-08 eV^2 / valence electron
maximum number of iterations: 333

#      iter     time        total  log10-change:
#                          energy   eigst   dens
# iter:   1 08:34:45   -13.950458                  +1.0,+0.0,+0.0
# iter:   2 08:35:03   -12.694763   -0.51  -1.31   +1.0,+0.0,-0.0
# iter:   3 08:35:21   -12.235031   -0.72  -1.45   +1.2,+0.0,-0.0
# iter:   4 08:35:39   -12.285518   -1.39  -1.68   +1.3,+0.0,+0.0
# iter:   5 08:35:57   -12.544989   -1.48  -1.66   +1.4,+0.0,-0.0
# iter:   6 08:36:15   -12.289989   -1.67  -1.74   +1.5,+0.0,-0.0
# iter:   7 08:36:33   -12.291179   -2.12  -2.22   +1.5,+0.0,-0.0
# iter:   8 08:36:51   -12.291797c  -2.33  -2.31   +1.6,+0.0,+0.0
# iter:   9 08:37:09   -12.292315c  -2.52  -2.61   +1.7,+0.0,+0.0
# iter:  10 08:37:27   -12.293102c  -2.77  -2.97   +1.7,+0.0,-0.0
# iter:  11 08:37:45   -12.299040c  -2.95  -2.94   +1.7,+0.0,+0.0
# iter:  12 08:38:03   -12.298047c  -3.13  -3.05   +1.7,+0.0,+0.0
# iter:  13 08:38:21   -12.299073c  -3.31  -3.31   +1.7,+0.0,+0.0
# iter:  14 08:38:38   -12.298513c  -3.46  -3.19   +1.7,+0.0,+0.0
# iter:  15 08:38:56   -12.297752c  -3.57  -3.21   +1.7,+0.0,+0.0
# iter:  16 08:39:14   -12.298027c  -3.76  -3.51   +1.7,+0.0,+0.0
# iter:  17 08:39:32   -12.298982c  -3.91  -3.54   +1.7,+0.0,+0.0
# iter:  18 08:39:50   -12.299049c  -4.05  -3.57   +1.7,+0.0,+0.0
# iter:  19 08:40:08   -12.299330c  -4.21  -3.63   +1.7,+0.0,+0.0
# iter:  20 08:40:26   -12.300140c  -4.33  -3.64   +1.8,+0.0,+0.0
# iter:  21 08:40:44   -12.300281c  -4.48  -3.74   +1.8,+0.0,+0.0
# iter:  22 08:41:01   -12.300878c  -4.63  -3.81   +1.8,+0.0,+0.0
# iter:  23 08:41:19   -12.300920c  -4.81  -3.90   +1.8,+0.0,+0.0
# iter:  24 08:41:37   -12.301106c  -4.94  -3.94   +1.8,+0.0,+0.0
# iter:  25 08:41:55   -12.300883c  -5.10  -4.01c  +1.8,+0.0,+0.0
# iter:  26 08:42:13   -12.300959c  -5.26  -4.07c  +1.8,+0.0,+0.0
# iter:  27 08:42:31   -12.301037c  -5.40  -4.14c  +1.8,+0.0,+0.0
# iter:  28 08:42:49   -12.300989c  -5.55  -4.15c  +1.8,+0.0,+0.0
# iter:  29 08:43:07   -12.300839c  -5.62  -4.19c  +1.8,+0.0,+0.0
# iter:  30 08:43:25   -12.300850c  -5.83  -4.38c  +1.8,+0.0,+0.0
# iter:  31 08:43:43   -12.300885c  -5.98  -4.44c  +1.8,+0.0,+0.0
# iter:  32 08:44:01   -12.300879c  -6.13  -4.50c  +1.8,+0.0,+0.0
# iter:  33 08:44:18   -12.300909c  -6.27  -4.51c  +1.8,+0.0,+0.0
# iter:  34 08:44:36   -12.300972c  -6.38  -4.52c  +1.8,+0.0,+0.0
# iter:  35 08:44:54   -12.301000c  -6.54  -4.53c  +1.8,+0.0,+0.0
# iter:  36 08:45:12   -12.301100c  -6.48  -4.55c  +1.8,+0.0,+0.0
# iter:  37 08:45:30   -12.301081c  -6.82  -4.76c  +1.8,+0.0,+0.0
# iter:  38 08:45:47   -12.301064c  -6.99  -4.97c  +1.8,+0.0,+0.0
# iter:  39 08:46:05   -12.301061c  -7.16  -5.35c  +1.8,+0.0,+0.0
# iter:  40 08:46:23   -12.301058c  -7.30  -5.36c  +1.8,+0.0,+0.0
# iter:  41 08:46:41   -12.301062c  -7.44c -5.54c  +1.8,+0.0,+0.0
scf_steps: 41
energies:  # eV
  coulomb:          -7.957303
  zero:              0.066255
  xc:              -14.944579
  external:          0.000000
  kinetic:          10.558027
  spinorbit:         0.000000
  entropy:          -0.046925
  total:           -12.324525
  extrapolated:    -12.301062

dipole moment: [-4.131378, -7.143729, -6.872792]  # |e|*Ang

total magnetic moment: [1.774264, 0.014823, 0.000000]

local magnetic moments: [
  [ 1.145916,  0.000000,  0.000000],  # Ni 0
  [ 0.160123, -0.071510,  0.000000],  # I  1
  [ 0.171575, -0.036265,  0.000000]]  # I  2


Fermi level: -1.675 eV

kpt = [-0.455, -0.455, 0.000], weight = 0.008:
  Band      eig [eV]   occ [0-1]
     0       -65.465       1.000
   ...
    22        -3.622       1.000
    23        -3.487       1.000
    24        -3.394       1.000
    25        -2.783       1.000
    26        -2.650       1.000
    27        -2.616       1.000
    28        -2.124       0.989
    29        -2.088       0.984
    30        -1.175       0.007
    31        -1.157       0.006
    32         1.128       0.000
    33         1.651       0.000
    34         3.222       0.000
    35         3.953       0.000
    36         4.029       0.000
    37         4.236       0.000
   ...
    39         4.521       0.000

kpt = [-0.455, -0.364, 0.000], weight = 0.008:
  Band      eig [eV]   occ [0-1]
     0       -65.465       1.000
   ...
    22        -3.549       1.000
    23        -3.434       1.000
    24        -3.288       1.000
    25        -2.742       1.000
    26        -2.628       1.000
    27        -2.543       1.000
    28        -2.359       0.999
    29        -2.164       0.993
    30        -1.400       0.060
    31        -1.213       0.010
    32         1.626       0.000
    33         2.050       0.000
    34         3.827       0.000
    35         4.179       0.000
    36         4.269       0.000
    37         4.486       0.000
   ...
    39         5.062       0.000

kpt = [-0.455, -0.273, 0.000], weight = 0.008:
  Band      eig [eV]   occ [0-1]
     0       -65.465       1.000
   ...
    22        -3.528       1.000
    23        -3.410       1.000
    24        -3.221       1.000
    25        -2.737       1.000
    26        -2.626       1.000
    27        -2.537       1.000
    28        -2.459       1.000
    29        -2.187       0.994
    30        -1.527       0.185
    31        -1.234       0.012
    32         2.026       0.000
    33         2.248       0.000
    34         3.678       0.000
    35         4.104       0.000
    36         4.663       0.000
    37         4.814       0.000
   ...
    39         5.523       0.000
(only showing first 3 out of 121 k-points)

No gap
# Writing to gsq-02.gpw (mode='')

