#  __  _  _
# | _ |_)|_||  |
# |__||  | ||/\| - 24.1.0

User:   s194113@n-62-29-13
Date:   Tue Apr 23 10:28:13 2024
Arch:   x86_64
Pid:    31044
CWD:    /zhome/87/8/147075/10302/10302_NM/NiI2/V_con
Python: 3.8.5
gpaw:   /zhome/87/8/147075/venv-name/gpaw/gpaw (10808453a8)
_gpaw:  /zhome/87/8/147075/venv-name/gpaw/
        _gpaw.cpython-38-x86_64-linux-gnu.so (10808453a8)
ase:    /zhome/87/8/147075/venv-name/ase/ase (version 3.23.0b1-c36115a2db)
numpy:  /zhome/87/8/147075/venv-name/lib/python3.8/site-packages/numpy (version 1.24.4)
scipy:  /zhome/87/8/147075/venv-name/lib/python3.8/site-packages/scipy (version 1.10.1)
libxc:  4.3.4
units:  Angstrom and eV
cores: 12
OpenMP: False
OMP_NUM_THREADS: 1

---
input parameters:
  kpts: 
    density: 6.0
    gamma: True
  magmoms: [[1, 0, 0], [0, 0, 0], [0, 0, 0]]
  mixer: 
    backend: 'pulay'
    beta: 0.05
    method: 'sum'
    nmaxold: 5
    weight: 100
  mode: 
    name: 'pw'
    ecut: 600
    qspiral: array([0.5, 0. , 0. ])
  parallel: 
    kpt: None
    domain: 1
    band: 1
    order: 'kdb'
    stridebands: False
    augment_grids: False
    sl_auto: False
    sl_default: None
    sl_diagonalize: None
    sl_inverse_cholesky: None
    sl_lcao: None
    sl_lrtddft: None
    use_elpa: False
    elpasolver: '2stage'
    buffer_size: None
    gpu: False
  symmetry: 
    point_group: False
    time_reversal: False
  xc: 
    name: 'LDA'

#                        
#                        
#                        
#                        
#                        
#              I         
#                        
#        Ni              
#          I             
#                        
#                        
#                        
#                        
#                        

atoms: [  # symbols, positions [Ang] and initial magnetic moments
  [ Ni, [   0.000000,    0.000000,    8.513573], [ 1.000,  0.000,  0.000]], # 0
  [  I, [   1.985000,    1.146040,   10.027147], [ 0.000,  0.000,  0.000]], # 1
  [  I, [  -0.000000,    2.292081,    7.000000], [ 0.000,  0.000,  0.000]]] # 2

cell: [  # Ang
#     x            y            z
  [   3.970000,    0.000000,    0.000000],
  [  -1.985000,    3.438121,    0.000000],
  [   0.000000,   -0.000000,   17.027147]]

periodic: [True      , True      , False     ]
lengths:  [  3.970000,   3.970000,  17.027147]  # Ang
angles:   [ 90.000000,  90.000000, 120.000000]

symmetry:
  number of symmetries: 1
  rotations: [
    [[ 1,  0,  0], [ 0,  1,  0], [ 0,  0,  1]]]

bz sampling:
  number of bz points: 121
  number of ibz points: 121
  monkhorst-pack size: [11, 11, 1]
  monkhorst-pack shift: [0, 0, 0]
  points and weights: [
    [[ -0.45454545,  -0.45454545,   0.00000000], 0.00826446],  # 0
    [[ -0.45454545,  -0.36363636,   0.00000000], 0.00826446],  # 1
    [[ -0.45454545,  -0.27272727,   0.00000000], 0.00826446],  # 2
    [[ -0.45454545,  -0.18181818,   0.00000000], 0.00826446],  # 3
    [[ -0.45454545,  -0.09090909,   0.00000000], 0.00826446],  # 4
    [[ -0.45454545,   0.00000000,   0.00000000], 0.00826446],  # 5
    [[ -0.45454545,   0.09090909,   0.00000000], 0.00826446],  # 6
    [[ -0.45454545,   0.18181818,   0.00000000], 0.00826446],  # 7
    [[ -0.45454545,   0.27272727,   0.00000000], 0.00826446],  # 8
    [[ -0.45454545,   0.36363636,   0.00000000], 0.00826446],  # 9
    # ...
    [[  0.45454545,   0.45454545,   0.00000000], 0.00826446]]  # 120

plane wave coefficients: 7794
cutoff: 600.0 eV

spin-components: 4  # (non-collinear spins)
bands: 40
valence electrons: 30.0
spin-degeneracy: 1
dtype: complex128

memory:
    wave functions: 1_203_417_600  # bytes  (100_284_800 per core)

parallelization:
    kpt:    12
    domain: 1
    band:   1

density:
  components: 4
  grid points: [24 24 98]
  charge: 0.0  # |e|

potential:
  grid points: [24 24 98]

species:
  Ni:
    name: Nickel
    id: 1802175e8de9ea26d9f4394ec1a7d564
    Z: 28.0
    valence: 16
    core: 12
    charge: 0.0
    file: /zhome/86/d/1666/PAW/gpaw-setups-0.9.20000/Ni.LDA.gz
    compensation charges: {type: gauss,
                           rc: 0.36,
                           lmax: 2}
    cutoffs: {filter: 2.14,
              core: 1.98}
    valence states:
      #              energy  rcut
      - 4s(2.00)    -5.858   1.164
      - 3p(6.00)   -71.266   1.207
      - 4p(0.00)    -1.338   1.207
      - 3d(8.00)    -9.141   1.138
      -  s          21.353   1.164
      -  d          18.071   1.138
  
    # Using partial waves for Ni as LCAO basis

  I:
    name: Iodine
    id: b559721c0c096a7b4c8fc0e0f4de5cf4
    Z: 53.0
    valence: 7
    core: 46
    charge: 0.0
    file: /zhome/86/d/1666/PAW/gpaw-setups-0.9.20000/I.LDA.gz
    compensation charges: {type: gauss,
                           rc: 0.37,
                           lmax: 2}
    cutoffs: {filter: 2.06,
              core: 2.90}
    valence states:
      #              energy  rcut
      - 5s(2.00)   -17.626   1.164
      - 5p(5.00)    -7.241   1.164
      -  s           9.585   1.164
      -  p          19.970   1.164
      -  d           0.000   1.164
  
    # Using partial waves for I as LCAO basis

Reference energy: -428067.566327  # eV

eigensolver:
  name: 'Davidson'
  niter: 2
  converge_bands: 'occupied'
Density mixing:
  Method: sum
  Backend: pulay
  Linear mixing parameter: 0.05
  old densities: 5
  Damping of long wavelength oscillations: 100
occupation numbers:
  Fermi-Dirac:
    width: 0.1000  # eV
  

poisson solver:
  ecut: 4800.0  # eV

xc functional:
  name: None

convergence criteria:
- Maximum [total energy] change in last 3 cyles: 0.0005 eV / valence electron
- Maximum integral of absolute [dens]ity change: 0.0001 electrons / valence electron
- Maximum integral of absolute [eigenst]ate change: 4e-08 eV^2 / valence electron
maximum number of iterations: 333

#      iter     time        total  log10-change:
#                          energy   eigst   dens
# iter:   1 10:28:41   -13.013293                  +1.0,+0.0,+0.0
# iter:   2 10:28:59   -12.490429   +0.33  -1.31   +0.8,-0.0,+0.0
# iter:   3 10:29:17   -12.156330   -0.29  -1.45   +0.7,-0.0,+0.0
# iter:   4 10:29:36   -12.202125   -0.84  -1.68   +0.8,+0.0,+0.0
# iter:   5 10:29:54   -12.607649   -0.97  -1.67   +0.8,+0.0,+0.0
# iter:   6 10:30:11   -12.226572   -1.18  -1.65   +0.8,+0.0,+0.0
# iter:   7 10:30:30   -12.225127   -1.44  -2.19   +0.9,+0.0,+0.0
# iter:   8 10:30:47   -12.229315c  -1.62  -2.37   +0.9,+0.0,+0.0
# iter:   9 10:31:05   -12.231104c  -1.76  -2.54   +1.0,+0.0,+0.0
# iter:  10 10:31:23   -12.231638c  -1.92  -3.03   +1.0,+0.0,+0.0
# iter:  11 10:31:41   -12.240821c  -2.06  -2.95   +1.0,-0.0,+0.0
# iter:  12 10:31:59   -12.242364c  -2.17  -3.14   +1.1,-0.0,+0.0
# iter:  13 10:32:17   -12.242793c  -2.32  -3.42   +1.1,-0.0,+0.0
# iter:  14 10:32:35   -12.242939c  -2.44  -3.56   +1.1,-0.0,+0.0
# iter:  15 10:32:53   -12.242931c  -2.57  -3.57   +1.0,-0.0,+0.0
# iter:  16 10:33:11   -12.243192c  -2.69  -3.56   +1.1,-0.0,+0.0
# iter:  17 10:33:29   -12.243843c  -2.81  -3.57   +1.1,-0.0,-0.0
# iter:  18 10:33:47   -12.246099c  -2.93  -3.68   +1.1,+0.0,-0.0
# iter:  19 10:34:05   -12.245630c  -3.06  -3.77   +1.1,+0.0,-0.0
# iter:  20 10:34:22   -12.245578c  -3.18  -3.78   +1.1,+0.0,-0.0
# iter:  21 10:34:40   -12.245411c  -3.30  -3.78   +1.1,+0.0,-0.0
# iter:  22 10:34:58   -12.245151c  -3.42  -3.78   +1.1,+0.0,-0.0
# iter:  23 10:35:16   -12.246592c  -3.53  -3.75   +1.1,+0.0,-0.0
# iter:  24 10:35:34   -12.246574c  -3.67  -3.78   +1.1,+0.0,-0.0
# iter:  25 10:35:52   -12.246573c  -3.79  -3.77   +1.1,+0.0,-0.0
# iter:  26 10:36:10   -12.247595c  -3.90  -3.78   +1.1,+0.0,-0.0
# iter:  27 10:36:27   -12.247367c  -4.03  -3.97   +1.1,+0.0,-0.0
# iter:  28 10:36:45   -12.247304c  -4.16  -3.93   +1.1,+0.0,-0.0
# iter:  29 10:37:03   -12.247548c  -4.28  -3.96   +1.1,+0.0,-0.0
# iter:  30 10:37:21   -12.247833c  -4.39  -3.98   +1.1,+0.0,-0.0
# iter:  31 10:37:39   -12.247692c  -4.53  -4.02c  +1.1,-0.0,-0.0
# iter:  32 10:37:56   -12.248625c  -4.53  -4.00   +1.1,-0.0,-0.0
# iter:  33 10:38:14   -12.248754c  -4.76  -4.39c  +1.1,-0.0,-0.0
# iter:  34 10:38:32   -12.248958c  -4.89  -4.48c  +1.1,-0.0,-0.0
# iter:  35 10:38:50   -12.248835c  -5.02  -4.56c  +1.1,+0.0,-0.0
# iter:  36 10:39:08   -12.248899c  -5.14  -4.53c  +1.1,+0.0,-0.0
# iter:  37 10:39:26   -12.249032c  -5.26  -4.61c  +1.1,+0.0,-0.0
# iter:  38 10:39:43   -12.249046c  -5.38  -4.76c  +1.1,+0.0,-0.0
# iter:  39 10:40:01   -12.248982c  -5.51  -4.72c  +1.1,+0.0,-0.0
# iter:  40 10:40:19   -12.248987c  -5.63  -4.72c  +1.1,+0.0,-0.0
# iter:  41 10:40:37   -12.248973c  -5.76  -4.80c  +1.1,+0.0,-0.0
# iter:  42 10:40:55   -12.248987c  -5.88  -4.80c  +1.1,+0.0,-0.0
# iter:  43 10:41:13   -12.249079c  -5.98  -4.82c  +1.1,+0.0,-0.0
# iter:  44 10:41:31   -12.249089c  -6.14  -4.92c  +1.1,+0.0,-0.0
# iter:  45 10:41:48   -12.249047c  -6.26  -4.81c  +1.1,+0.0,-0.0
# iter:  46 10:42:06   -12.249196c  -6.27  -5.02c  +1.1,+0.0,-0.0
# iter:  47 10:42:24   -12.249117c  -6.50  -5.02c  +1.1,+0.0,-0.0
# iter:  48 10:42:42   -12.249131c  -6.65  -5.20c  +1.1,-0.0,-0.0
# iter:  49 10:43:00   -12.249132c  -6.78  -5.23c  +1.1,-0.0,-0.0
# iter:  50 10:43:17   -12.249095c  -6.87  -5.26c  +1.1,+0.0,-0.0
# iter:  51 10:43:35   -12.249094c  -7.03  -5.50c  +1.1,-0.0,-0.0
# iter:  52 10:43:53   -12.249089c  -7.15  -5.54c  +1.1,+0.0,-0.0
# iter:  53 10:44:11   -12.249097c  -7.27  -5.58c  +1.1,+0.0,-0.0
# iter:  54 10:44:29   -12.249097c  -7.40c -5.90c  +1.1,+0.0,-0.0
scf_steps: 54
energies:  # eV
  coulomb:          -8.043121
  zero:              0.066287
  xc:              -14.906353
  external:          0.000000
  kinetic:          10.669686
  spinorbit:         0.000000
  entropy:          -0.071192
  total:           -12.284693
  extrapolated:    -12.249097

dipole moment: [-3.365864, -6.076907, -0.886979]  # |e|*Ang

total magnetic moment: [1.125819, 0.000000, -0.000000]

local magnetic moments: [
  [ 1.108137,  0.000000, -0.000000],  # Ni 0
  [-0.057068, -0.000005, -0.000000],  # I  1
  [ 0.057068, -0.000005, -0.000000]]  # I  2


Fermi level: -1.689 eV

kpt = [-0.455, -0.455, 0.000], weight = 0.008:
  Band      eig [eV]   occ [0-1]
     0       -65.440       1.000
   ...
    22        -3.488       1.000
    23        -3.422       1.000
    24        -3.172       1.000
    25        -2.783       1.000
    26        -2.675       1.000
    27        -2.589       1.000
    28        -2.353       0.999
    29        -2.072       0.979
    30        -1.519       0.155
    31        -1.235       0.011
    32         1.906       0.000
    33         2.044       0.000
    34         3.723       0.000
    35         3.976       0.000
    36         4.362       0.000
    37         4.630       0.000
   ...
    39         5.087       0.000

kpt = [-0.455, -0.364, 0.000], weight = 0.008:
  Band      eig [eV]   occ [0-1]
     0       -65.440       1.000
   ...
    22        -3.434       1.000
    23        -3.382       1.000
    24        -3.195       1.000
    25        -2.899       1.000
    26        -2.614       1.000
    27        -2.593       1.000
    28        -2.253       0.996
    29        -2.016       0.963
    30        -1.477       0.108
    31        -1.203       0.008
    32         1.708       0.000
    33         1.958       0.000
    34         3.448       0.000
    35         3.939       0.000
    36         4.108       0.000
    37         4.445       0.000
   ...
    39         5.020       0.000

kpt = [-0.455, -0.273, 0.000], weight = 0.008:
  Band      eig [eV]   occ [0-1]
     0       -65.440       1.000
   ...
    22        -3.416       1.000
    23        -3.309       1.000
    24        -3.119       1.000
    25        -2.942       1.000
    26        -2.605       1.000
    27        -2.528       1.000
    28        -2.306       0.998
    29        -1.937       0.923
    30        -1.574       0.240
    31        -1.134       0.004
    32         1.861       0.000
    33         2.165       0.000
    34         3.293       0.000
    35         3.662       0.000
    36         3.819       0.000
    37         4.284       0.000
   ...
    39         5.147       0.000
(only showing first 3 out of 121 k-points)

No gap
# Writing to gsq-10.gpw (mode='')

