#  __  _  _
# | _ |_)|_||  |
# |__||  | ||/\| - 24.1.0

User:   s194113@n-62-29-13
Date:   Tue Apr 23 09:41:12 2024
Arch:   x86_64
Pid:    31044
CWD:    /zhome/87/8/147075/10302/10302_NM/NiI2/V_con
Python: 3.8.5
gpaw:   /zhome/87/8/147075/venv-name/gpaw/gpaw (10808453a8)
_gpaw:  /zhome/87/8/147075/venv-name/gpaw/
        _gpaw.cpython-38-x86_64-linux-gnu.so (10808453a8)
ase:    /zhome/87/8/147075/venv-name/ase/ase (version 3.23.0b1-c36115a2db)
numpy:  /zhome/87/8/147075/venv-name/lib/python3.8/site-packages/numpy (version 1.24.4)
scipy:  /zhome/87/8/147075/venv-name/lib/python3.8/site-packages/scipy (version 1.10.1)
libxc:  4.3.4
units:  Angstrom and eV
cores: 12
OpenMP: False
OMP_NUM_THREADS: 1

---
input parameters:
  kpts: 
    density: 6.0
    gamma: True
  magmoms: [[1, 0, 0], [0, 0, 0], [0, 0, 0]]
  mixer: 
    backend: 'pulay'
    beta: 0.05
    method: 'sum'
    nmaxold: 5
    weight: 100
  mode: 
    name: 'pw'
    ecut: 600
    qspiral: array([0.35, 0.  , 0.  ])
  parallel: 
    kpt: None
    domain: 1
    band: 1
    order: 'kdb'
    stridebands: False
    augment_grids: False
    sl_auto: False
    sl_default: None
    sl_diagonalize: None
    sl_inverse_cholesky: None
    sl_lcao: None
    sl_lrtddft: None
    use_elpa: False
    elpasolver: '2stage'
    buffer_size: None
    gpu: False
  symmetry: 
    point_group: False
    time_reversal: False
  xc: 
    name: 'LDA'

#                        
#                        
#                        
#                        
#                        
#              I         
#                        
#        Ni              
#          I             
#                        
#                        
#                        
#                        
#                        

atoms: [  # symbols, positions [Ang] and initial magnetic moments
  [ Ni, [   0.000000,    0.000000,    8.513573], [ 1.000,  0.000,  0.000]], # 0
  [  I, [   1.985000,    1.146040,   10.027147], [ 0.000,  0.000,  0.000]], # 1
  [  I, [  -0.000000,    2.292081,    7.000000], [ 0.000,  0.000,  0.000]]] # 2

cell: [  # Ang
#     x            y            z
  [   3.970000,    0.000000,    0.000000],
  [  -1.985000,    3.438121,    0.000000],
  [   0.000000,   -0.000000,   17.027147]]

periodic: [True      , True      , False     ]
lengths:  [  3.970000,   3.970000,  17.027147]  # Ang
angles:   [ 90.000000,  90.000000, 120.000000]

symmetry:
  number of symmetries: 1
  rotations: [
    [[ 1,  0,  0], [ 0,  1,  0], [ 0,  0,  1]]]

bz sampling:
  number of bz points: 121
  number of ibz points: 121
  monkhorst-pack size: [11, 11, 1]
  monkhorst-pack shift: [0, 0, 0]
  points and weights: [
    [[ -0.45454545,  -0.45454545,   0.00000000], 0.00826446],  # 0
    [[ -0.45454545,  -0.36363636,   0.00000000], 0.00826446],  # 1
    [[ -0.45454545,  -0.27272727,   0.00000000], 0.00826446],  # 2
    [[ -0.45454545,  -0.18181818,   0.00000000], 0.00826446],  # 3
    [[ -0.45454545,  -0.09090909,   0.00000000], 0.00826446],  # 4
    [[ -0.45454545,   0.00000000,   0.00000000], 0.00826446],  # 5
    [[ -0.45454545,   0.09090909,   0.00000000], 0.00826446],  # 6
    [[ -0.45454545,   0.18181818,   0.00000000], 0.00826446],  # 7
    [[ -0.45454545,   0.27272727,   0.00000000], 0.00826446],  # 8
    [[ -0.45454545,   0.36363636,   0.00000000], 0.00826446],  # 9
    # ...
    [[  0.45454545,   0.45454545,   0.00000000], 0.00826446]]  # 120

plane wave coefficients: 7794
cutoff: 600.0 eV

spin-components: 4  # (non-collinear spins)
bands: 40
valence electrons: 30.0
spin-degeneracy: 1
dtype: complex128

memory:
    wave functions: 1_203_417_600  # bytes  (100_284_800 per core)

parallelization:
    kpt:    12
    domain: 1
    band:   1

density:
  components: 4
  grid points: [24 24 98]
  charge: 0.0  # |e|

potential:
  grid points: [24 24 98]

species:
  Ni:
    name: Nickel
    id: 1802175e8de9ea26d9f4394ec1a7d564
    Z: 28.0
    valence: 16
    core: 12
    charge: 0.0
    file: /zhome/86/d/1666/PAW/gpaw-setups-0.9.20000/Ni.LDA.gz
    compensation charges: {type: gauss,
                           rc: 0.36,
                           lmax: 2}
    cutoffs: {filter: 2.14,
              core: 1.98}
    valence states:
      #              energy  rcut
      - 4s(2.00)    -5.858   1.164
      - 3p(6.00)   -71.266   1.207
      - 4p(0.00)    -1.338   1.207
      - 3d(8.00)    -9.141   1.138
      -  s          21.353   1.164
      -  d          18.071   1.138
  
    # Using partial waves for Ni as LCAO basis

  I:
    name: Iodine
    id: b559721c0c096a7b4c8fc0e0f4de5cf4
    Z: 53.0
    valence: 7
    core: 46
    charge: 0.0
    file: /zhome/86/d/1666/PAW/gpaw-setups-0.9.20000/I.LDA.gz
    compensation charges: {type: gauss,
                           rc: 0.37,
                           lmax: 2}
    cutoffs: {filter: 2.06,
              core: 2.90}
    valence states:
      #              energy  rcut
      - 5s(2.00)   -17.626   1.164
      - 5p(5.00)    -7.241   1.164
      -  s           9.585   1.164
      -  p          19.970   1.164
      -  d           0.000   1.164
  
    # Using partial waves for I as LCAO basis

Reference energy: -428067.566327  # eV

eigensolver:
  name: 'Davidson'
  niter: 2
  converge_bands: 'occupied'
Density mixing:
  Method: sum
  Backend: pulay
  Linear mixing parameter: 0.05
  old densities: 5
  Damping of long wavelength oscillations: 100
occupation numbers:
  Fermi-Dirac:
    width: 0.1000  # eV
  

poisson solver:
  ecut: 4800.0  # eV

xc functional:
  name: None

convergence criteria:
- Maximum [total energy] change in last 3 cyles: 0.0005 eV / valence electron
- Maximum integral of absolute [dens]ity change: 0.0001 electrons / valence electron
- Maximum integral of absolute [eigenst]ate change: 4e-08 eV^2 / valence electron
maximum number of iterations: 333

#      iter     time        total  log10-change:
#                          energy   eigst   dens
# iter:   1 09:41:40   -13.528679                  +1.0,+0.0,+0.0
# iter:   2 09:41:58   -12.613579   +0.04  -1.31   +0.9,+0.0,+0.0
# iter:   3 09:42:17   -12.205924   -0.47  -1.45   +0.9,+0.0,-0.0
# iter:   4 09:42:35   -12.271489   -1.06  -1.68   +1.0,+0.0,-0.0
# iter:   5 09:42:53   -12.570166   -1.20  -1.66   +1.1,+0.0,-0.0
# iter:   6 09:43:11   -12.282065   -1.40  -1.71   +1.1,+0.0,+0.0
# iter:   7 09:43:30   -12.271500   -1.67  -2.16   +1.1,+0.0,+0.0
# iter:   8 09:43:48   -12.274354c  -1.87  -2.34   +1.2,+0.0,+0.0
# iter:   9 09:44:07   -12.274575c  -2.02  -2.55   +1.2,+0.0,-0.0
# iter:  10 09:44:25   -12.274220c  -2.21  -3.00   +1.2,+0.0,-0.0
# iter:  11 09:44:43   -12.279757c  -2.36  -2.87   +1.3,+0.0,-0.0
# iter:  12 09:45:01   -12.281950c  -2.49  -3.30   +1.3,+0.0,-0.0
# iter:  13 09:45:19   -12.282041c  -2.63  -3.50   +1.3,+0.0,-0.0
# iter:  14 09:45:37   -12.282185c  -2.77  -3.62   +1.3,+0.0,-0.0
# iter:  15 09:45:55   -12.283178c  -2.90  -3.66   +1.3,+0.0,-0.0
# iter:  16 09:46:13   -12.284141c  -3.03  -3.85   +1.4,+0.0,+0.0
# iter:  17 09:46:31   -12.284693c  -3.16  -3.99   +1.4,+0.0,+0.0
# iter:  18 09:46:49   -12.284837c  -3.29  -3.91   +1.4,+0.0,+0.0
# iter:  19 09:47:07   -12.284829c  -3.43  -4.28c  +1.4,+0.0,+0.0
# iter:  20 09:47:25   -12.284858c  -3.56  -4.33c  +1.4,+0.0,+0.0
# iter:  21 09:47:43   -12.284937c  -3.69  -4.36c  +1.4,+0.0,+0.0
# iter:  22 09:48:01   -12.284916c  -3.82  -4.59c  +1.4,+0.0,+0.0
# iter:  23 09:48:20   -12.284929c  -3.95  -4.64c  +1.4,+0.0,-0.0
# iter:  24 09:48:38   -12.284967c  -4.07  -4.69c  +1.4,+0.0,+0.0
# iter:  25 09:48:56   -12.285050c  -4.20  -4.81c  +1.4,+0.0,+0.0
# iter:  26 09:49:14   -12.285065c  -4.32  -5.10c  +1.4,+0.0,+0.0
# iter:  27 09:49:32   -12.285066c  -4.45  -5.14c  +1.4,+0.0,+0.0
# iter:  28 09:49:50   -12.285066c  -4.58  -5.12c  +1.4,+0.0,+0.0
# iter:  29 09:50:08   -12.285067c  -4.71  -5.12c  +1.4,+0.0,+0.0
# iter:  30 09:50:26   -12.285063c  -4.84  -5.13c  +1.4,+0.0,+0.0
# iter:  31 09:50:44   -12.285073c  -4.97  -5.09c  +1.4,+0.0,+0.0
# iter:  32 09:51:02   -12.285070c  -5.10  -5.14c  +1.4,+0.0,+0.0
# iter:  33 09:51:21   -12.285072c  -5.23  -5.13c  +1.4,+0.0,+0.0
# iter:  34 09:51:39   -12.285072c  -5.36  -5.11c  +1.4,+0.0,+0.0
# iter:  35 09:51:57   -12.285075c  -5.50  -5.13c  +1.4,+0.0,+0.0
# iter:  36 09:52:15   -12.285071c  -5.62  -5.15c  +1.4,+0.0,+0.0
# iter:  37 09:52:34   -12.285075c  -5.75  -5.14c  +1.4,+0.0,+0.0
# iter:  38 09:52:52   -12.285041c  -5.87  -5.12c  +1.4,+0.0,+0.0
# iter:  39 09:53:10   -12.285038c  -6.01  -5.50c  +1.4,+0.0,+0.0
# iter:  40 09:53:28   -12.285038c  -6.14  -5.52c  +1.4,+0.0,+0.0
# iter:  41 09:53:46   -12.285035c  -6.27  -5.49c  +1.4,+0.0,+0.0
# iter:  42 09:54:04   -12.285035c  -6.40  -5.53c  +1.4,+0.0,+0.0
# iter:  43 09:54:22   -12.285039c  -6.54  -5.65c  +1.4,+0.0,+0.0
# iter:  44 09:54:41   -12.285041c  -6.67  -5.74c  +1.4,+0.0,+0.0
# iter:  45 09:54:59   -12.285038c  -6.81  -5.77c  +1.4,+0.0,+0.0
# iter:  46 09:55:17   -12.285038c  -6.95  -5.79c  +1.4,+0.0,+0.0
# iter:  47 09:55:35   -12.285036c  -7.08  -5.83c  +1.4,+0.0,+0.0
# iter:  48 09:55:53   -12.285033c  -7.22  -5.97c  +1.4,+0.0,+0.0
# iter:  49 09:56:11   -12.285033c  -7.36  -6.20c  +1.4,+0.0,+0.0
# iter:  50 09:56:29   -12.285033c  -7.49c -6.24c  +1.4,+0.0,+0.0
scf_steps: 50
energies:  # eV
  coulomb:          -7.815159
  zero:              0.066446
  xc:              -14.896954
  external:          0.000000
  kinetic:          10.386485
  spinorbit:         0.000000
  entropy:          -0.051700
  total:           -12.310883
  extrapolated:    -12.285033

dipole moment: [-3.700056, -6.467890, -3.187141]  # |e|*Ang

total magnetic moment: [1.372093, 0.019027, 0.000000]

local magnetic moments: [
  [ 1.119062, -0.000000,  0.000000],  # Ni 0
  [-0.010490, -0.093800,  0.000000],  # I  1
  [ 0.082051, -0.046647,  0.000000]]  # I  2


Fermi level: -1.676 eV

kpt = [-0.455, -0.455, 0.000], weight = 0.008:
  Band      eig [eV]   occ [0-1]
     0       -65.445       1.000
   ...
    22        -3.500       1.000
    23        -3.457       1.000
    24        -3.241       1.000
    25        -2.783       1.000
    26        -2.667       1.000
    27        -2.580       1.000
    28        -2.322       0.998
    29        -2.079       0.983
    30        -1.395       0.057
    31        -1.209       0.009
    32         1.422       0.000
    33         2.144       0.000
    34         3.510       0.000
    35         3.829       0.000
    36         4.008       0.000
    37         4.504       0.000
   ...
    39         5.251       0.000

kpt = [-0.455, -0.364, 0.000], weight = 0.008:
  Band      eig [eV]   occ [0-1]
     0       -65.445       1.000
   ...
    22        -3.505       1.000
    23        -3.364       1.000
    24        -3.291       1.000
    25        -2.858       1.000
    26        -2.612       1.000
    27        -2.603       1.000
    28        -2.251       0.997
    29        -2.092       0.985
    30        -1.400       0.060
    31        -1.186       0.007
    32         1.367       0.000
    33         2.089       0.000
    34         3.257       0.000
    35         3.858       0.000
    36         4.277       0.000
    37         4.484       0.000
   ...
    39         5.067       0.000

kpt = [-0.455, -0.273, 0.000], weight = 0.008:
  Band      eig [eV]   occ [0-1]
     0       -65.445       1.000
   ...
    22        -3.438       1.000
    23        -3.345       1.000
    24        -3.202       1.000
    25        -2.855       1.000
    26        -2.613       1.000
    27        -2.549       1.000
    28        -2.310       0.998
    29        -2.087       0.984
    30        -1.496       0.141
    31        -1.239       0.013
    32         1.894       0.000
    33         2.150       0.000
    34         3.551       0.000
    35         3.861       0.000
    36         3.980       0.000
    37         4.505       0.000
   ...
    39         4.989       0.000
(only showing first 3 out of 121 k-points)

No gap
# Writing to gsq-07.gpw (mode='')

                                                                                                       