#  __  _  _
# | _ |_)|_||  |
# |__||  | ||/\| - 24.1.0

User:   s194113@n-62-29-13
Date:   Tue Apr 23 13:29:52 2024
Arch:   x86_64
Pid:    31044
CWD:    /zhome/87/8/147075/10302/10302_NM/NiI2/V_con
Python: 3.8.5
gpaw:   /zhome/87/8/147075/venv-name/gpaw/gpaw (10808453a8)
_gpaw:  /zhome/87/8/147075/venv-name/gpaw/
        _gpaw.cpython-38-x86_64-linux-gnu.so (10808453a8)
ase:    /zhome/87/8/147075/venv-name/ase/ase (version 3.23.0b1-c36115a2db)
numpy:  /zhome/87/8/147075/venv-name/lib/python3.8/site-packages/numpy (version 1.24.4)
scipy:  /zhome/87/8/147075/venv-name/lib/python3.8/site-packages/scipy (version 1.10.1)
libxc:  4.3.4
units:  Angstrom and eV
cores: 12
OpenMP: False
OMP_NUM_THREADS: 1

---
input parameters:
  kpts: 
    density: 6.0
    gamma: True
  magmoms: [[1, 0, 0], [0, 0, 0], [0, 0, 0]]
  mixer: 
    backend: 'pulay'
    beta: 0.05
    method: 'sum'
    nmaxold: 5
    weight: 100
  mode: 
    name: 'pw'
    ecut: 600
    qspiral: array([0.21428571, 0.21428571, 0.        ])
  parallel: 
    kpt: None
    domain: 1
    band: 1
    order: 'kdb'
    stridebands: False
    augment_grids: False
    sl_auto: False
    sl_default: None
    sl_diagonalize: None
    sl_inverse_cholesky: None
    sl_lcao: None
    sl_lrtddft: None
    use_elpa: False
    elpasolver: '2stage'
    buffer_size: None
    gpu: False
  symmetry: 
    point_group: False
    time_reversal: False
  xc: 
    name: 'LDA'

#                        
#                        
#                        
#                        
#                        
#              I         
#                        
#        Ni              
#          I             
#                        
#                        
#                        
#                        
#                        

atoms: [  # symbols, positions [Ang] and initial magnetic moments
  [ Ni, [   0.000000,    0.000000,    8.513573], [ 1.000,  0.000,  0.000]], # 0
  [  I, [   1.985000,    1.146040,   10.027147], [ 0.000,  0.000,  0.000]], # 1
  [  I, [  -0.000000,    2.292081,    7.000000], [ 0.000,  0.000,  0.000]]] # 2

cell: [  # Ang
#     x            y            z
  [   3.970000,    0.000000,    0.000000],
  [  -1.985000,    3.438121,    0.000000],
  [   0.000000,   -0.000000,   17.027147]]

periodic: [True      , True      , False     ]
lengths:  [  3.970000,   3.970000,  17.027147]  # Ang
angles:   [ 90.000000,  90.000000, 120.000000]

symmetry:
  number of symmetries: 1
  rotations: [
    [[ 1,  0,  0], [ 0,  1,  0], [ 0,  0,  1]]]

bz sampling:
  number of bz points: 121
  number of ibz points: 121
  monkhorst-pack size: [11, 11, 1]
  monkhorst-pack shift: [0, 0, 0]
  points and weights: [
    [[ -0.45454545,  -0.45454545,   0.00000000], 0.00826446],  # 0
    [[ -0.45454545,  -0.36363636,   0.00000000], 0.00826446],  # 1
    [[ -0.45454545,  -0.27272727,   0.00000000], 0.00826446],  # 2
    [[ -0.45454545,  -0.18181818,   0.00000000], 0.00826446],  # 3
    [[ -0.45454545,  -0.09090909,   0.00000000], 0.00826446],  # 4
    [[ -0.45454545,   0.00000000,   0.00000000], 0.00826446],  # 5
    [[ -0.45454545,   0.09090909,   0.00000000], 0.00826446],  # 6
    [[ -0.45454545,   0.18181818,   0.00000000], 0.00826446],  # 7
    [[ -0.45454545,   0.27272727,   0.00000000], 0.00826446],  # 8
    [[ -0.45454545,   0.36363636,   0.00000000], 0.00826446],  # 9
    # ...
    [[  0.45454545,   0.45454545,   0.00000000], 0.00826446]]  # 120

plane wave coefficients: 7794
cutoff: 600.0 eV

spin-components: 4  # (non-collinear spins)
bands: 40
valence electrons: 30.0
spin-degeneracy: 1
dtype: complex128

memory:
    wave functions: 1_203_417_600  # bytes  (100_284_800 per core)

parallelization:
    kpt:    12
    domain: 1
    band:   1

density:
  components: 4
  grid points: [24 24 98]
  charge: 0.0  # |e|

potential:
  grid points: [24 24 98]

species:
  Ni:
    name: Nickel
    id: 1802175e8de9ea26d9f4394ec1a7d564
    Z: 28.0
    valence: 16
    core: 12
    charge: 0.0
    file: /zhome/86/d/1666/PAW/gpaw-setups-0.9.20000/Ni.LDA.gz
    compensation charges: {type: gauss,
                           rc: 0.36,
                           lmax: 2}
    cutoffs: {filter: 2.14,
              core: 1.98}
    valence states:
      #              energy  rcut
      - 4s(2.00)    -5.858   1.164
      - 3p(6.00)   -71.266   1.207
      - 4p(0.00)    -1.338   1.207
      - 3d(8.00)    -9.141   1.138
      -  s          21.353   1.164
      -  d          18.071   1.138
  
    # Using partial waves for Ni as LCAO basis

  I:
    name: Iodine
    id: b559721c0c096a7b4c8fc0e0f4de5cf4
    Z: 53.0
    valence: 7
    core: 46
    charge: 0.0
    file: /zhome/86/d/1666/PAW/gpaw-setups-0.9.20000/I.LDA.gz
    compensation charges: {type: gauss,
                           rc: 0.37,
                           lmax: 2}
    cutoffs: {filter: 2.06,
              core: 2.90}
    valence states:
      #              energy  rcut
      - 5s(2.00)   -17.626   1.164
      - 5p(5.00)    -7.241   1.164
      -  s           9.585   1.164
      -  p          19.970   1.164
      -  d           0.000   1.164
  
    # Using partial waves for I as LCAO basis

Reference energy: -428067.566327  # eV

eigensolver:
  name: 'Davidson'
  niter: 2
  converge_bands: 'occupied'
Density mixing:
  Method: sum
  Backend: pulay
  Linear mixing parameter: 0.05
  old densities: 5
  Damping of long wavelength oscillations: 100
occupation numbers:
  Fermi-Dirac:
    width: 0.1000  # eV
  

poisson solver:
  ecut: 4800.0  # eV

xc functional:
  name: None

convergence criteria:
- Maximum [total energy] change in last 3 cyles: 0.0005 eV / valence electron
- Maximum integral of absolute [dens]ity change: 0.0001 electrons / valence electron
- Maximum integral of absolute [eigenst]ate change: 4e-08 eV^2 / valence electron
maximum number of iterations: 333

#      iter     time        total  log10-change:
#                          energy   eigst   dens
# iter:   1 13:30:20   -13.469667                  +1.0,+0.0,+0.0
# iter:   2 13:30:39   -12.609954   +0.09  -1.31   +0.9,+0.0,-0.0
# iter:   3 13:30:57   -12.215525   -0.44  -1.45   +0.9,+0.0,+0.0
# iter:   4 13:31:16   -12.279045   -1.04  -1.68   +1.0,+0.0,+0.0
# iter:   5 13:31:34   -12.576642   -1.18  -1.66   +1.1,+0.0,+0.0
# iter:   6 13:31:52   -12.301100   -1.39  -1.71   +1.1,+0.0,+0.0
# iter:   7 13:32:11   -12.294126   -1.66  -2.16   +1.1,+0.0,+0.0
# iter:   8 13:32:29   -12.292110c  -1.84  -2.33   +1.2,+0.0,+0.0
# iter:   9 13:32:47   -12.292561c  -2.00  -2.62   +1.2,+0.0,+0.0
# iter:  10 13:33:06   -12.293459c  -2.18  -2.99   +1.2,+0.0,+0.0
# iter:  11 13:33:24   -12.297735c  -2.32  -2.87   +1.3,+0.0,+0.0
# iter:  12 13:33:42   -12.298983c  -2.46  -3.44   +1.3,+0.0,-0.0
# iter:  13 13:34:01   -12.299083c  -2.60  -3.65   +1.3,+0.0,+0.0
# iter:  14 13:34:19   -12.299050c  -2.73  -3.71   +1.3,+0.0,-0.0
# iter:  15 13:34:37   -12.300229c  -2.85  -3.65   +1.3,+0.0,-0.0
# iter:  16 13:34:55   -12.300411c  -2.98  -3.83   +1.3,+0.0,-0.0
# iter:  17 13:35:13   -12.300646c  -3.10  -3.89   +1.3,+0.0,-0.0
# iter:  18 13:35:32   -12.301191c  -3.23  -4.04c  +1.3,+0.0,+0.0
# iter:  19 13:35:50   -12.301288c  -3.36  -4.34c  +1.3,+0.0,+0.0
# iter:  20 13:36:08   -12.301343c  -3.48  -4.49c  +1.3,+0.0,+0.0
# iter:  21 13:36:26   -12.301413c  -3.61  -4.54c  +1.3,+0.0,+0.0
# iter:  22 13:36:44   -12.301488c  -3.73  -4.59c  +1.3,+0.0,-0.0
# iter:  23 13:37:03   -12.301453c  -3.86  -4.71c  +1.3,+0.0,+0.0
# iter:  24 13:37:21   -12.301466c  -3.98  -4.81c  +1.3,+0.0,+0.0
# iter:  25 13:37:39   -12.301462c  -4.10  -4.87c  +1.3,+0.0,+0.0
# iter:  26 13:37:57   -12.301446c  -4.23  -4.93c  +1.3,+0.0,+0.0
# iter:  27 13:38:16   -12.301433c  -4.35  -4.96c  +1.3,+0.0,+0.0
# iter:  28 13:38:34   -12.301401c  -4.48  -5.05c  +1.3,+0.0,+0.0
# iter:  29 13:38:52   -12.301405c  -4.61  -5.47c  +1.3,+0.0,+0.0
# iter:  30 13:39:10   -12.301408c  -4.74  -5.54c  +1.3,+0.0,+0.0
# iter:  31 13:39:29   -12.301409c  -4.87  -5.67c  +1.3,+0.0,+0.0
# iter:  32 13:39:47   -12.301411c  -5.00  -5.75c  +1.3,+0.0,+0.0
# iter:  33 13:40:05   -12.301400c  -5.13  -5.69c  +1.3,+0.0,+0.0
# iter:  34 13:40:23   -12.301412c  -5.26  -5.66c  +1.3,+0.0,+0.0
# iter:  35 13:40:41   -12.301409c  -5.39  -5.65c  +1.3,+0.0,+0.0
# iter:  36 13:40:59   -12.301408c  -5.51  -5.66c  +1.3,+0.0,+0.0
# iter:  37 13:41:18   -12.301408c  -5.65  -5.61c  +1.3,+0.0,+0.0
# iter:  38 13:41:36   -12.301404c  -5.78  -5.65c  +1.3,+0.0,+0.0
# iter:  39 13:41:55   -12.301418c  -5.91  -5.63c  +1.3,+0.0,+0.0
# iter:  40 13:42:13   -12.301406c  -6.04  -5.56c  +1.3,+0.0,+0.0
# iter:  41 13:42:31   -12.301410c  -6.18  -5.53c  +1.3,+0.0,+0.0
# iter:  42 13:42:49   -12.301411c  -6.31  -5.63c  +1.3,+0.0,+0.0
# iter:  43 13:43:08   -12.301410c  -6.45  -5.64c  +1.3,+0.0,+0.0
# iter:  44 13:43:26   -12.301413c  -6.59  -5.62c  +1.3,+0.0,+0.0
# iter:  45 13:43:44   -12.301409c  -6.72  -5.65c  +1.3,+0.0,+0.0
# iter:  46 13:44:02   -12.301415c  -6.85  -5.67c  +1.3,+0.0,+0.0
# iter:  47 13:44:20   -12.301414c  -6.99  -5.63c  +1.3,+0.0,+0.0
# iter:  48 13:44:39   -12.301413c  -7.12  -5.58c  +1.3,+0.0,+0.0
# iter:  49 13:44:57   -12.301413c  -7.25  -5.67c  +1.3,+0.0,+0.0
# iter:  50 13:45:15   -12.301410c  -7.38  -5.70c  +1.3,+0.0,+0.0
# iter:  51 13:45:33   -12.301413c  -7.53c -6.14c  +1.3,+0.0,+0.0
scf_steps: 51
energies:  # eV
  coulomb:          -7.669224
  zero:              0.066693
  xc:              -14.882251
  external:          0.000000
  kinetic:          10.203935
  spinorbit:         0.000000
  entropy:          -0.041132
  total:           -12.321979
  extrapolated:    -12.301413

dipole moment: [-3.693925, -6.397239, -3.078578]  # |e|*Ang

total magnetic moment: [1.341058, 0.022257, 0.000000]

local magnetic moments: [
  [ 1.120030, -0.000000,  0.000000],  # Ni 0
  [ 0.018744, -0.081967,  0.000000],  # I  1
  [ 0.018676, -0.081983,  0.000000]]  # I  2


Fermi level: -1.683 eV

kpt = [-0.455, -0.455, 0.000], weight = 0.008:
  Band      eig [eV]   occ [0-1]
     0       -65.440       1.000
   ...
    22        -3.531       1.000
    23        -3.370       1.000
    24        -3.299       1.000
    25        -2.810       1.000
    26        -2.638       1.000
    27        -2.597       1.000
    28        -2.274       0.997
    29        -2.196       0.994
    30        -1.383       0.047
    31        -1.302       0.022
    32         1.498       0.000
    33         2.102       0.000
    34         3.808       0.000
    35         4.315       0.000
    36         4.360       0.000
    37         4.367       0.000
   ...
    39         4.761       0.000

kpt = [-0.455, -0.364, 0.000], weight = 0.008:
  Band      eig [eV]   occ [0-1]
     0       -65.440       1.000
   ...
    22        -3.497       1.000
    23        -3.394       1.000
    24        -3.357       1.000
    25        -2.923       1.000
    26        -2.660       1.000
    27        -2.631       1.000
    28        -2.211       0.995
    29        -2.043       0.973
    30        -1.342       0.032
    31        -1.187       0.007
    32         1.139       0.000
    33         2.067       0.000
    34         3.195       0.000
    35         3.964       0.000
    36         4.165       0.000
    37         4.335       0.000
   ...
    39         5.432       0.000

kpt = [-0.455, -0.273, 0.000], weight = 0.008:
  Band      eig [eV]   occ [0-1]
     0       -65.440       1.000
   ...
    22        -3.430       1.000
    23        -3.416       1.000
    24        -3.300       1.000
    25        -2.948       1.000
    26        -2.678       1.000
    27        -2.619       1.000
    28        -2.157       0.991
    29        -1.967       0.945
    30        -1.374       0.043
    31        -1.166       0.006
    32         1.319       0.000
    33         1.833       0.000
    34         3.357       0.000
    35         3.920       0.000
    36         3.930       0.000
    37         4.447       0.000
   ...
    39         4.670       0.000
(only showing first 3 out of 121 k-points)

Gap: 0.381 eV
Transition (v -> c):
  (s=0, k=38, n=29, [-0.18, 0.00, 0.00]) -> (s=0, k=30, n=30, [-0.27, 0.27, 0.00])
# Writing to gsq-21.gpw (mode='')

