#  __  _  _
# | _ |_)|_||  |
# |__||  | ||/\| - 24.1.0

User:   s194113@n-62-29-13
Date:   Tue Apr 23 14:15:06 2024
Arch:   x86_64
Pid:    31044
CWD:    /zhome/87/8/147075/10302/10302_NM/NiI2/V_con
Python: 3.8.5
gpaw:   /zhome/87/8/147075/venv-name/gpaw/gpaw (10808453a8)
_gpaw:  /zhome/87/8/147075/venv-name/gpaw/
        _gpaw.cpython-38-x86_64-linux-gnu.so (10808453a8)
ase:    /zhome/87/8/147075/venv-name/ase/ase (version 3.23.0b1-c36115a2db)
numpy:  /zhome/87/8/147075/venv-name/lib/python3.8/site-packages/numpy (version 1.24.4)
scipy:  /zhome/87/8/147075/venv-name/lib/python3.8/site-packages/scipy (version 1.10.1)
libxc:  4.3.4
units:  Angstrom and eV
cores: 12
OpenMP: False
OMP_NUM_THREADS: 1

---
input parameters:
  kpts: 
    density: 6.0
    gamma: True
  magmoms: [[1, 0, 0], [0, 0, 0], [0, 0, 0]]
  mixer: 
    backend: 'pulay'
    beta: 0.05
    method: 'sum'
    nmaxold: 5
    weight: 100
  mode: 
    name: 'pw'
    ecut: 600
    qspiral: array([0.14285714, 0.14285714, 0.        ])
  parallel: 
    kpt: None
    domain: 1
    band: 1
    order: 'kdb'
    stridebands: False
    augment_grids: False
    sl_auto: False
    sl_default: None
    sl_diagonalize: None
    sl_inverse_cholesky: None
    sl_lcao: None
    sl_lrtddft: None
    use_elpa: False
    elpasolver: '2stage'
    buffer_size: None
    gpu: False
  symmetry: 
    point_group: False
    time_reversal: False
  xc: 
    name: 'LDA'

#                        
#                        
#                        
#                        
#                        
#              I         
#                        
#        Ni              
#          I             
#                        
#                        
#                        
#                        
#                        

atoms: [  # symbols, positions [Ang] and initial magnetic moments
  [ Ni, [   0.000000,    0.000000,    8.513573], [ 1.000,  0.000,  0.000]], # 0
  [  I, [   1.985000,    1.146040,   10.027147], [ 0.000,  0.000,  0.000]], # 1
  [  I, [  -0.000000,    2.292081,    7.000000], [ 0.000,  0.000,  0.000]]] # 2

cell: [  # Ang
#     x            y            z
  [   3.970000,    0.000000,    0.000000],
  [  -1.985000,    3.438121,    0.000000],
  [   0.000000,   -0.000000,   17.027147]]

periodic: [True      , True      , False     ]
lengths:  [  3.970000,   3.970000,  17.027147]  # Ang
angles:   [ 90.000000,  90.000000, 120.000000]

symmetry:
  number of symmetries: 1
  rotations: [
    [[ 1,  0,  0], [ 0,  1,  0], [ 0,  0,  1]]]

bz sampling:
  number of bz points: 121
  number of ibz points: 121
  monkhorst-pack size: [11, 11, 1]
  monkhorst-pack shift: [0, 0, 0]
  points and weights: [
    [[ -0.45454545,  -0.45454545,   0.00000000], 0.00826446],  # 0
    [[ -0.45454545,  -0.36363636,   0.00000000], 0.00826446],  # 1
    [[ -0.45454545,  -0.27272727,   0.00000000], 0.00826446],  # 2
    [[ -0.45454545,  -0.18181818,   0.00000000], 0.00826446],  # 3
    [[ -0.45454545,  -0.09090909,   0.00000000], 0.00826446],  # 4
    [[ -0.45454545,   0.00000000,   0.00000000], 0.00826446],  # 5
    [[ -0.45454545,   0.09090909,   0.00000000], 0.00826446],  # 6
    [[ -0.45454545,   0.18181818,   0.00000000], 0.00826446],  # 7
    [[ -0.45454545,   0.27272727,   0.00000000], 0.00826446],  # 8
    [[ -0.45454545,   0.36363636,   0.00000000], 0.00826446],  # 9
    # ...
    [[  0.45454545,   0.45454545,   0.00000000], 0.00826446]]  # 120

plane wave coefficients: 7794
cutoff: 600.0 eV

spin-components: 4  # (non-collinear spins)
bands: 40
valence electrons: 30.0
spin-degeneracy: 1
dtype: complex128

memory:
    wave functions: 1_203_417_600  # bytes  (100_284_800 per core)

parallelization:
    kpt:    12
    domain: 1
    band:   1

density:
  components: 4
  grid points: [24 24 98]
  charge: 0.0  # |e|

potential:
  grid points: [24 24 98]

species:
  Ni:
    name: Nickel
    id: 1802175e8de9ea26d9f4394ec1a7d564
    Z: 28.0
    valence: 16
    core: 12
    charge: 0.0
    file: /zhome/86/d/1666/PAW/gpaw-setups-0.9.20000/Ni.LDA.gz
    compensation charges: {type: gauss,
                           rc: 0.36,
                           lmax: 2}
    cutoffs: {filter: 2.14,
              core: 1.98}
    valence states:
      #              energy  rcut
      - 4s(2.00)    -5.858   1.164
      - 3p(6.00)   -71.266   1.207
      - 4p(0.00)    -1.338   1.207
      - 3d(8.00)    -9.141   1.138
      -  s          21.353   1.164
      -  d          18.071   1.138
  
    # Using partial waves for Ni as LCAO basis

  I:
    name: Iodine
    id: b559721c0c096a7b4c8fc0e0f4de5cf4
    Z: 53.0
    valence: 7
    core: 46
    charge: 0.0
    file: /zhome/86/d/1666/PAW/gpaw-setups-0.9.20000/I.LDA.gz
    compensation charges: {type: gauss,
                           rc: 0.37,
                           lmax: 2}
    cutoffs: {filter: 2.06,
              core: 2.90}
    valence states:
      #              energy  rcut
      - 5s(2.00)   -17.626   1.164
      - 5p(5.00)    -7.241   1.164
      -  s           9.585   1.164
      -  p          19.970   1.164
      -  d           0.000   1.164
  
    # Using partial waves for I as LCAO basis

Reference energy: -428067.566327  # eV

eigensolver:
  name: 'Davidson'
  niter: 2
  converge_bands: 'occupied'
Density mixing:
  Method: sum
  Backend: pulay
  Linear mixing parameter: 0.05
  old densities: 5
  Damping of long wavelength oscillations: 100
occupation numbers:
  Fermi-Dirac:
    width: 0.1000  # eV
  

poisson solver:
  ecut: 4800.0  # eV

xc functional:
  name: None

convergence criteria:
- Maximum [total energy] change in last 3 cyles: 0.0005 eV / valence electron
- Maximum integral of absolute [dens]ity change: 0.0001 electrons / valence electron
- Maximum integral of absolute [eigenst]ate change: 4e-08 eV^2 / valence electron
maximum number of iterations: 333

#      iter     time        total  log10-change:
#                          energy   eigst   dens
# iter:   1 14:15:34   -13.766585                  +1.0,+0.0,+0.0
# iter:   2 14:15:52   -12.675717   -0.18  -1.31   +1.0,+0.0,+0.0
# iter:   3 14:16:11   -12.241131   -0.59  -1.45   +1.1,+0.0,+0.0
# iter:   4 14:16:29   -12.312224   -1.25  -1.68   +1.2,+0.0,+0.0
# iter:   5 14:16:47   -12.550118   -1.39  -1.66   +1.3,+0.0,+0.0
# iter:   6 14:17:05   -12.325969   -1.60  -1.75   +1.4,+0.0,+0.0
# iter:   7 14:17:23   -12.314334   -1.90  -2.15   +1.4,+0.0,+0.0
# iter:   8 14:17:42   -12.310212   -2.10  -2.32   +1.5,+0.0,-0.0
# iter:   9 14:18:00   -12.310653c  -2.29  -2.67   +1.5,+0.0,+0.0
# iter:  10 14:18:18   -12.311489c  -2.49  -2.99   +1.5,+0.0,-0.0
# iter:  11 14:18:36   -12.314421c  -2.65  -2.88   +1.5,+0.0,-0.0
# iter:  12 14:18:54   -12.315265c  -2.81  -3.48   +1.5,+0.0,+0.0
# iter:  13 14:19:12   -12.315337c  -2.95  -3.66   +1.5,+0.0,-0.0
# iter:  14 14:19:30   -12.315317c  -3.09  -3.72   +1.5,+0.0,-0.0
# iter:  15 14:19:48   -12.315445c  -3.23  -3.72   +1.5,+0.0,-0.0
# iter:  16 14:20:06   -12.315476c  -3.36  -3.74   +1.5,+0.0,-0.0
# iter:  17 14:20:24   -12.315503c  -3.49  -3.74   +1.5,+0.0,-0.0
# iter:  18 14:20:42   -12.315498c  -3.63  -3.72   +1.5,+0.0,-0.0
# iter:  19 14:21:00   -12.315471c  -3.76  -3.73   +1.5,+0.0,-0.0
# iter:  20 14:21:18   -12.315383c  -3.89  -3.74   +1.5,+0.0,-0.0
# iter:  21 14:21:36   -12.315566c  -4.01  -3.75   +1.5,+0.0,-0.0
# iter:  22 14:21:54   -12.315626c  -4.15  -3.78   +1.5,+0.0,-0.0
# iter:  23 14:22:12   -12.315905c  -4.27  -3.80   +1.5,+0.0,-0.0
# iter:  24 14:22:30   -12.316043c  -4.40  -3.89   +1.5,+0.0,-0.0
# iter:  25 14:22:49   -12.316157c  -4.53  -3.97   +1.5,+0.0,-0.0
# iter:  26 14:23:07   -12.316650c  -4.62  -4.01c  +1.6,+0.0,+0.0
# iter:  27 14:23:25   -12.316812c  -4.76  -4.20c  +1.6,+0.0,-0.0
# iter:  28 14:23:43   -12.316866c  -4.92  -4.34c  +1.6,+0.0,-0.0
# iter:  29 14:24:01   -12.316812c  -5.06  -4.37c  +1.6,+0.0,-0.0
# iter:  30 14:24:19   -12.316854c  -5.19  -4.42c  +1.6,+0.0,-0.0
# iter:  31 14:24:37   -12.316912c  -5.30  -4.54c  +1.6,+0.0,-0.0
# iter:  32 14:24:55   -12.317030c  -5.43  -4.54c  +1.6,+0.0,-0.0
# iter:  33 14:25:13   -12.316997c  -5.57  -4.64c  +1.6,+0.0,-0.0
# iter:  34 14:25:31   -12.316985c  -5.70  -4.89c  +1.6,+0.0,-0.0
# iter:  35 14:25:50   -12.316985c  -5.83  -4.94c  +1.6,+0.0,-0.0
# iter:  36 14:26:08   -12.316970c  -5.97  -5.02c  +1.6,+0.0,-0.0
# iter:  37 14:26:26   -12.316962c  -6.10  -5.20c  +1.6,+0.0,-0.0
# iter:  38 14:26:44   -12.316970c  -6.23  -5.28c  +1.6,+0.0,-0.0
# iter:  39 14:27:02   -12.316964c  -6.36  -5.21c  +1.6,+0.0,-0.0
# iter:  40 14:27:20   -12.316969c  -6.50  -5.53c  +1.6,+0.0,-0.0
# iter:  41 14:27:38   -12.316972c  -6.64  -5.73c  +1.6,+0.0,-0.0
# iter:  42 14:27:56   -12.316973c  -6.77  -5.73c  +1.6,+0.0,-0.0
# iter:  43 14:28:14   -12.316973c  -6.91  -5.82c  +1.6,+0.0,-0.0
# iter:  44 14:28:32   -12.316974c  -7.04  -5.95c  +1.6,+0.0,-0.0
# iter:  45 14:28:50   -12.316976c  -7.19  -5.97c  +1.6,+0.0,-0.0
# iter:  46 14:29:08   -12.316976c  -7.33  -6.02c  +1.6,+0.0,-0.0
# iter:  47 14:29:26   -12.316976c  -7.47c -6.05c  +1.6,+0.0,-0.0
scf_steps: 47
energies:  # eV
  coulomb:          -7.646605
  zero:              0.066651
  xc:              -14.896191
  external:          0.000000
  kinetic:          10.177274
  spinorbit:         0.000000
  entropy:          -0.036211
  total:           -12.335082
  extrapolated:    -12.316976

dipole moment: [-3.916876, -6.783532, -5.007876]  # |e|*Ang

total magnetic moment: [1.562995, 0.028494, -0.000000]

local magnetic moments: [
  [ 1.131441, -0.000000, -0.000000],  # Ni 0
  [ 0.083342, -0.104478, -0.000000],  # I  1
  [ 0.083313, -0.104501, -0.000000]]  # I  2


Fermi level: -1.675 eV

kpt = [-0.455, -0.455, 0.000], weight = 0.008:
  Band      eig [eV]   occ [0-1]
     0       -65.448       1.000
   ...
    22        -3.569       1.000
    23        -3.428       1.000
    24        -3.365       1.000
    25        -2.788       1.000
    26        -2.638       1.000
    27        -2.612       1.000
    28        -2.222       0.996
    29        -2.143       0.991
    30        -1.242       0.013
    31        -1.229       0.011
    32         1.159       0.000
    33         2.023       0.000
    34         3.265       0.000
    35         4.113       0.000
    36         4.177       0.000
    37         4.275       0.000
   ...
    39         5.279       0.000

kpt = [-0.455, -0.364, 0.000], weight = 0.008:
  Band      eig [eV]   occ [0-1]
     0       -65.448       1.000
   ...
    22        -3.533       1.000
    23        -3.418       1.000
    24        -3.354       1.000
    25        -2.840       1.000
    26        -2.637       1.000
    27        -2.616       1.000
    28        -2.235       0.996
    29        -2.110       0.987
    30        -1.303       0.024
    31        -1.199       0.008
    32         1.157       0.000
    33         2.105       0.000
    34         3.222       0.000
    35         3.971       0.000
    36         4.194       0.000
    37         4.339       0.000
   ...
    39         5.405       0.000

kpt = [-0.455, -0.273, 0.000], weight = 0.008:
  Band      eig [eV]   occ [0-1]
     0       -65.448       1.000
   ...
    22        -3.473       1.000
    23        -3.406       1.000
    24        -3.264       1.000
    25        -2.848       1.000
    26        -2.636       1.000
    27        -2.611       1.000
    28        -2.263       0.997
    29        -2.086       0.984
    30        -1.413       0.068
    31        -1.231       0.012
    32         1.669       0.000
    33         1.939       0.000
    34         3.780       0.000
    35         4.205       0.000
    36         4.222       0.000
    37         4.422       0.000
   ...
    39         4.969       0.000
(only showing first 3 out of 121 k-points)

Gap: 0.296 eV
Transition (v -> c):
  (s=0, k=60, n=29, [0.00, 0.00, 0.00]) -> (s=0, k=24, n=30, [-0.27, -0.27, 0.00])
# Writing to gsq-24.gpw (mode='')

---

timing:  # [seconds]
  Total: 861.036  # ━━━━━━━━━━━━━━━━━━━━━━━━━━━━━━━━━━━━━━━━━━━━━━━━━━━━━━━━━
  Init:   11.315  # ╸
  SCF:   849.228  # ━━━━━━━━━━━━━━━━━━━━━━━━━━━━━━━━━━━━━━━━━━━━━━━━━━━━━━━━

Max RSS: 1553.188  # MiB
