#  __  _  _
# | _ |_)|_||  |
# |__||  | ||/\| - 24.1.0

User:   s194113@n-62-29-13
Date:   Tue Apr 23 09:56:29 2024
Arch:   x86_64
Pid:    31044
CWD:    /zhome/87/8/147075/10302/10302_NM/NiI2/V_con
Python: 3.8.5
gpaw:   /zhome/87/8/147075/venv-name/gpaw/gpaw (10808453a8)
_gpaw:  /zhome/87/8/147075/venv-name/gpaw/
        _gpaw.cpython-38-x86_64-linux-gnu.so (10808453a8)
ase:    /zhome/87/8/147075/venv-name/ase/ase (version 3.23.0b1-c36115a2db)
numpy:  /zhome/87/8/147075/venv-name/lib/python3.8/site-packages/numpy (version 1.24.4)
scipy:  /zhome/87/8/147075/venv-name/lib/python3.8/site-packages/scipy (version 1.10.1)
libxc:  4.3.4
units:  Angstrom and eV
cores: 12
OpenMP: False
OMP_NUM_THREADS: 1

---
input parameters:
  kpts: 
    density: 6.0
    gamma: True
  magmoms: [[1, 0, 0], [0, 0, 0], [0, 0, 0]]
  mixer: 
    backend: 'pulay'
    beta: 0.05
    method: 'sum'
    nmaxold: 5
    weight: 100
  mode: 
    name: 'pw'
    ecut: 600
    qspiral: array([0.4, 0. , 0. ])
  parallel: 
    kpt: None
    domain: 1
    band: 1
    order: 'kdb'
    stridebands: False
    augment_grids: False
    sl_auto: False
    sl_default: None
    sl_diagonalize: None
    sl_inverse_cholesky: None
    sl_lcao: None
    sl_lrtddft: None
    use_elpa: False
    elpasolver: '2stage'
    buffer_size: None
    gpu: False
  symmetry: 
    point_group: False
    time_reversal: False
  xc: 
    name: 'LDA'

#                        
#                        
#                        
#                        
#                        
#              I         
#                        
#        Ni              
#          I             
#                        
#                        
#                        
#                        
#                        

atoms: [  # symbols, positions [Ang] and initial magnetic moments
  [ Ni, [   0.000000,    0.000000,    8.513573], [ 1.000,  0.000,  0.000]], # 0
  [  I, [   1.985000,    1.146040,   10.027147], [ 0.000,  0.000,  0.000]], # 1
  [  I, [  -0.000000,    2.292081,    7.000000], [ 0.000,  0.000,  0.000]]] # 2

cell: [  # Ang
#     x            y            z
  [   3.970000,    0.000000,    0.000000],
  [  -1.985000,    3.438121,    0.000000],
  [   0.000000,   -0.000000,   17.027147]]

periodic: [True      , True      , False     ]
lengths:  [  3.970000,   3.970000,  17.027147]  # Ang
angles:   [ 90.000000,  90.000000, 120.000000]

symmetry:
  number of symmetries: 1
  rotations: [
    [[ 1,  0,  0], [ 0,  1,  0], [ 0,  0,  1]]]

bz sampling:
  number of bz points: 121
  number of ibz points: 121
  monkhorst-pack size: [11, 11, 1]
  monkhorst-pack shift: [0, 0, 0]
  points and weights: [
    [[ -0.45454545,  -0.45454545,   0.00000000], 0.00826446],  # 0
    [[ -0.45454545,  -0.36363636,   0.00000000], 0.00826446],  # 1
    [[ -0.45454545,  -0.27272727,   0.00000000], 0.00826446],  # 2
    [[ -0.45454545,  -0.18181818,   0.00000000], 0.00826446],  # 3
    [[ -0.45454545,  -0.09090909,   0.00000000], 0.00826446],  # 4
    [[ -0.45454545,   0.00000000,   0.00000000], 0.00826446],  # 5
    [[ -0.45454545,   0.09090909,   0.00000000], 0.00826446],  # 6
    [[ -0.45454545,   0.18181818,   0.00000000], 0.00826446],  # 7
    [[ -0.45454545,   0.27272727,   0.00000000], 0.00826446],  # 8
    [[ -0.45454545,   0.36363636,   0.00000000], 0.00826446],  # 9
    # ...
    [[  0.45454545,   0.45454545,   0.00000000], 0.00826446]]  # 120

plane wave coefficients: 7794
cutoff: 600.0 eV

spin-components: 4  # (non-collinear spins)
bands: 40
valence electrons: 30.0
spin-degeneracy: 1
dtype: complex128

memory:
    wave functions: 1_203_417_600  # bytes  (100_284_800 per core)

parallelization:
    kpt:    12
    domain: 1
    band:   1

density:
  components: 4
  grid points: [24 24 98]
  charge: 0.0  # |e|

potential:
  grid points: [24 24 98]

species:
  Ni:
    name: Nickel
    id: 1802175e8de9ea26d9f4394ec1a7d564
    Z: 28.0
    valence: 16
    core: 12
    charge: 0.0
    file: /zhome/86/d/1666/PAW/gpaw-setups-0.9.20000/Ni.LDA.gz
    compensation charges: {type: gauss,
                           rc: 0.36,
                           lmax: 2}
    cutoffs: {filter: 2.14,
              core: 1.98}
    valence states:
      #              energy  rcut
      - 4s(2.00)    -5.858   1.164
      - 3p(6.00)   -71.266   1.207
      - 4p(0.00)    -1.338   1.207
      - 3d(8.00)    -9.141   1.138
      -  s          21.353   1.164
      -  d          18.071   1.138
  
    # Using partial waves for Ni as LCAO basis

  I:
    name: Iodine
    id: b559721c0c096a7b4c8fc0e0f4de5cf4
    Z: 53.0
    valence: 7
    core: 46
    charge: 0.0
    file: /zhome/86/d/1666/PAW/gpaw-setups-0.9.20000/I.LDA.gz
    compensation charges: {type: gauss,
                           rc: 0.37,
                           lmax: 2}
    cutoffs: {filter: 2.06,
              core: 2.90}
    valence states:
      #              energy  rcut
      - 5s(2.00)   -17.626   1.164
      - 5p(5.00)    -7.241   1.164
      -  s           9.585   1.164
      -  p          19.970   1.164
      -  d           0.000   1.164
  
    # Using partial waves for I as LCAO basis

Reference energy: -428067.566327  # eV

eigensolver:
  name: 'Davidson'
  niter: 2
  converge_bands: 'occupied'
Density mixing:
  Method: sum
  Backend: pulay
  Linear mixing parameter: 0.05
  old densities: 5
  Damping of long wavelength oscillations: 100
occupation numbers:
  Fermi-Dirac:
    width: 0.1000  # eV
  

poisson solver:
  ecut: 4800.0  # eV

xc functional:
  name: None

convergence criteria:
- Maximum [total energy] change in last 3 cyles: 0.0005 eV / valence electron
- Maximum integral of absolute [dens]ity change: 0.0001 electrons / valence electron
- Maximum integral of absolute [eigenst]ate change: 4e-08 eV^2 / valence electron
maximum number of iterations: 333

#      iter     time        total  log10-change:
#                          energy   eigst   dens
# iter:   1 09:56:58   -13.378052                  +1.0,+0.0,+0.0
# iter:   2 09:57:16   -12.574143   +0.15  -1.31   +0.8,+0.0,-0.0
# iter:   3 09:57:34   -12.185902   -0.41  -1.45   +0.8,+0.0,-0.0
# iter:   4 09:57:53   -12.244852   -0.99  -1.68   +1.0,+0.0,-0.0
# iter:   5 09:58:11   -12.585244   -1.12  -1.66   +1.0,+0.0,-0.0
# iter:   6 09:58:29   -12.254533   -1.31  -1.68   +1.0,+0.0,+0.0
# iter:   7 09:58:47   -12.248540   -1.59  -2.18   +1.0,+0.0,+0.0
# iter:   8 09:59:05   -12.253068c  -1.78  -2.35   +1.1,+0.0,-0.0
# iter:   9 09:59:23   -12.253762c  -1.92  -2.52   +1.1,+0.0,+0.0
# iter:  10 09:59:41   -12.253365c  -2.10  -3.01   +1.1,+0.0,-0.0
# iter:  11 09:59:59   -12.260639c  -2.24  -2.90   +1.2,+0.0,+0.0
# iter:  12 10:00:18   -12.263036c  -2.37  -3.32   +1.2,+0.0,+0.0
# iter:  13 10:00:36   -12.263170c  -2.51  -3.48   +1.2,+0.0,+0.0
# iter:  14 10:00:54   -12.263358c  -2.64  -3.59   +1.2,+0.0,+0.0
# iter:  15 10:01:12   -12.264614c  -2.77  -3.62   +1.2,+0.0,+0.0
# iter:  16 10:01:30   -12.266282c  -2.89  -3.79   +1.3,+0.0,+0.0
# iter:  17 10:01:48   -12.266828c  -3.02  -4.06c  +1.3,+0.0,+0.0
# iter:  18 10:02:06   -12.267267c  -3.16  -3.78   +1.3,+0.0,+0.0
# iter:  19 10:02:24   -12.267305c  -3.29  -4.28c  +1.3,+0.0,+0.0
# iter:  20 10:02:42   -12.267342c  -3.41  -4.40c  +1.3,+0.0,+0.0
# iter:  21 10:02:59   -12.267310c  -3.54  -4.44c  +1.3,+0.0,+0.0
# iter:  22 10:03:17   -12.267200c  -3.67  -4.49c  +1.3,+0.0,+0.0
# iter:  23 10:03:35   -12.267291c  -3.79  -4.63c  +1.3,+0.0,+0.0
# iter:  24 10:03:53   -12.267392c  -3.92  -4.87c  +1.3,+0.0,+0.0
# iter:  25 10:04:11   -12.267460c  -4.05  -5.09c  +1.3,+0.0,+0.0
# iter:  26 10:04:29   -12.267455c  -4.17  -5.13c  +1.3,+0.0,+0.0
# iter:  27 10:04:47   -12.267451c  -4.30  -5.15c  +1.3,+0.0,+0.0
# iter:  28 10:05:05   -12.267459c  -4.43  -5.14c  +1.3,+0.0,+0.0
# iter:  29 10:05:23   -12.267446c  -4.56  -5.09c  +1.3,+0.0,+0.0
# iter:  30 10:05:41   -12.267463c  -4.69  -5.08c  +1.3,+0.0,+0.0
# iter:  31 10:05:59   -12.267431c  -4.82  -5.09c  +1.3,+0.0,+0.0
# iter:  32 10:06:17   -12.267440c  -4.95  -5.04c  +1.3,+0.0,+0.0
# iter:  33 10:06:34   -12.267443c  -5.08  -5.09c  +1.3,+0.0,+0.0
# iter:  34 10:06:52   -12.267456c  -5.21  -5.04c  +1.3,+0.0,+0.0
# iter:  35 10:07:10   -12.267471c  -5.34  -5.07c  +1.3,+0.0,+0.0
# iter:  36 10:07:28   -12.267458c  -5.47  -5.07c  +1.3,+0.0,+0.0
# iter:  37 10:07:46   -12.267464c  -5.60  -5.11c  +1.3,+0.0,+0.0
# iter:  38 10:08:04   -12.267459c  -5.74  -5.26c  +1.3,+0.0,+0.0
# iter:  39 10:08:22   -12.267450c  -5.88  -5.42c  +1.3,+0.0,+0.0
# iter:  40 10:08:40   -12.267449c  -6.01  -5.51c  +1.3,+0.0,+0.0
# iter:  41 10:08:58   -12.267443c  -6.14  -5.52c  +1.3,+0.0,+0.0
# iter:  42 10:09:16   -12.267438c  -6.28  -5.74c  +1.3,+0.0,+0.0
# iter:  43 10:09:34   -12.267437c  -6.41  -5.80c  +1.3,+0.0,+0.0
# iter:  44 10:09:51   -12.267431c  -6.54  -5.84c  +1.3,+0.0,+0.0
# iter:  45 10:10:09   -12.267430c  -6.68  -6.06c  +1.3,+0.0,+0.0
# iter:  46 10:10:27   -12.267430c  -6.80  -6.22c  +1.3,+0.0,+0.0
# iter:  47 10:10:45   -12.267429c  -6.94  -6.18c  +1.3,+0.0,+0.0
# iter:  48 10:11:03   -12.267428c  -7.07  -6.22c  +1.3,+0.0,+0.0
# iter:  49 10:11:21   -12.267428c  -7.20  -6.24c  +1.3,+0.0,+0.0
# iter:  50 10:11:39   -12.267426c  -7.33  -6.28c  +1.3,+0.0,+0.0
# iter:  51 10:11:57   -12.267426c  -7.46c -6.38c  +1.3,+0.0,+0.0
scf_steps: 51
energies:  # eV
  coulomb:          -7.929428
  zero:              0.066366
  xc:              -14.901727
  external:          0.000000
  kinetic:          10.527795
  spinorbit:         0.000000
  entropy:          -0.060865
  total:           -12.297859
  extrapolated:    -12.267426

dipole moment: [-3.589484, -6.324406, -2.362859]  # |e|*Ang

total magnetic moment: [1.283343, 0.013679, 0.000000]

local magnetic moments: [
  [ 1.114178,  0.000000,  0.000000],  # Ni 0
  [-0.035754, -0.067527,  0.000000],  # I  1
  [ 0.068617, -0.033614,  0.000000]]  # I  2


Fermi level: -1.683 eV

kpt = [-0.455, -0.455, 0.000], weight = 0.008:
  Band      eig [eV]   occ [0-1]
     0       -65.444       1.000
   ...
    22        -3.492       1.000
    23        -3.444       1.000
    24        -3.208       1.000
    25        -2.785       1.000
    26        -2.671       1.000
    27        -2.583       1.000
    28        -2.338       0.999
    29        -2.075       0.981
    30        -1.454       0.092
    31        -1.223       0.010
    32         1.594       0.000
    33         2.135       0.000
    34         3.667       0.000
    35         3.840       0.000
    36         4.102       0.000
    37         4.513       0.000
   ...
    39         5.297       0.000

kpt = [-0.455, -0.364, 0.000], weight = 0.008:
  Band      eig [eV]   occ [0-1]
     0       -65.444       1.000
   ...
    22        -3.484       1.000
    23        -3.375       1.000
    24        -3.254       1.000
    25        -2.885       1.000
    26        -2.610       1.000
    27        -2.606       1.000
    28        -2.257       0.997
    29        -2.051       0.975
    30        -1.435       0.077
    31        -1.180       0.006
    32         1.437       0.000
    33         2.061       0.000
    34         3.285       0.000
    35         3.868       0.000
    36         4.244       0.000
    37         4.465       0.000
   ...
    39         5.086       0.000

kpt = [-0.455, -0.273, 0.000], weight = 0.008:
  Band      eig [eV]   occ [0-1]
     0       -65.444       1.000
   ...
    22        -3.434       1.000
    23        -3.330       1.000
    24        -3.183       1.000
    25        -2.890       1.000
    26        -2.608       1.000
    27        -2.547       1.000
    28        -2.310       0.998
    29        -2.025       0.968
    30        -1.526       0.172
    31        -1.200       0.008
    32         1.854       0.000
    33         2.166       0.000
    34         3.452       0.000
    35         3.762       0.000
    36         3.912       0.000
    37         4.412       0.000
   ...
    39         5.047       0.000
(only showing first 3 out of 121 k-points)

No gap
# Writing to gsq-08.gpw (mode='')

