#  __  _  _
# | _ |_)|_||  |
# |__||  | ||/\| - 24.1.0

User:   s194113@n-62-29-13
Date:   Tue Apr 23 15:21:00 2024
Arch:   x86_64
Pid:    31044
CWD:    /zhome/87/8/147075/10302/10302_NM/NiI2/V_con
Python: 3.8.5
gpaw:   /zhome/87/8/147075/venv-name/gpaw/gpaw (10808453a8)
_gpaw:  /zhome/87/8/147075/venv-name/gpaw/
        _gpaw.cpython-38-x86_64-linux-gnu.so (10808453a8)
ase:    /zhome/87/8/147075/venv-name/ase/ase (version 3.23.0b1-c36115a2db)
numpy:  /zhome/87/8/147075/venv-name/lib/python3.8/site-packages/numpy (version 1.24.4)
scipy:  /zhome/87/8/147075/venv-name/lib/python3.8/site-packages/scipy (version 1.10.1)
libxc:  4.3.4
units:  Angstrom and eV
cores: 12
OpenMP: False
OMP_NUM_THREADS: 1

---
input parameters:
  kpts: 
    density: 6.0
    gamma: True
  magmoms: [[1, 0, 0], [0, 0, 0], [0, 0, 0]]
  mixer: 
    backend: 'pulay'
    beta: 0.05
    method: 'sum'
    nmaxold: 5
    weight: 100
  mode: 
    name: 'pw'
    ecut: 600
    qspiral: array([0.02380952, 0.02380952, 0.        ])
  parallel: 
    kpt: None
    domain: 1
    band: 1
    order: 'kdb'
    stridebands: False
    augment_grids: False
    sl_auto: False
    sl_default: None
    sl_diagonalize: None
    sl_inverse_cholesky: None
    sl_lcao: None
    sl_lrtddft: None
    use_elpa: False
    elpasolver: '2stage'
    buffer_size: None
    gpu: False
  symmetry: 
    point_group: False
    time_reversal: False
  xc: 
    name: 'LDA'

#                        
#                        
#                        
#                        
#                        
#              I         
#                        
#        Ni              
#          I             
#                        
#                        
#                        
#                        
#                        

atoms: [  # symbols, positions [Ang] and initial magnetic moments
  [ Ni, [   0.000000,    0.000000,    8.513573], [ 1.000,  0.000,  0.000]], # 0
  [  I, [   1.985000,    1.146040,   10.027147], [ 0.000,  0.000,  0.000]], # 1
  [  I, [  -0.000000,    2.292081,    7.000000], [ 0.000,  0.000,  0.000]]] # 2

cell: [  # Ang
#     x            y            z
  [   3.970000,    0.000000,    0.000000],
  [  -1.985000,    3.438121,    0.000000],
  [   0.000000,   -0.000000,   17.027147]]

periodic: [True      , True      , False     ]
lengths:  [  3.970000,   3.970000,  17.027147]  # Ang
angles:   [ 90.000000,  90.000000, 120.000000]

symmetry:
  number of symmetries: 1
  rotations: [
    [[ 1,  0,  0], [ 0,  1,  0], [ 0,  0,  1]]]

bz sampling:
  number of bz points: 121
  number of ibz points: 121
  monkhorst-pack size: [11, 11, 1]
  monkhorst-pack shift: [0, 0, 0]
  points and weights: [
    [[ -0.45454545,  -0.45454545,   0.00000000], 0.00826446],  # 0
    [[ -0.45454545,  -0.36363636,   0.00000000], 0.00826446],  # 1
    [[ -0.45454545,  -0.27272727,   0.00000000], 0.00826446],  # 2
    [[ -0.45454545,  -0.18181818,   0.00000000], 0.00826446],  # 3
    [[ -0.45454545,  -0.09090909,   0.00000000], 0.00826446],  # 4
    [[ -0.45454545,   0.00000000,   0.00000000], 0.00826446],  # 5
    [[ -0.45454545,   0.09090909,   0.00000000], 0.00826446],  # 6
    [[ -0.45454545,   0.18181818,   0.00000000], 0.00826446],  # 7
    [[ -0.45454545,   0.27272727,   0.00000000], 0.00826446],  # 8
    [[ -0.45454545,   0.36363636,   0.00000000], 0.00826446],  # 9
    # ...
    [[  0.45454545,   0.45454545,   0.00000000], 0.00826446]]  # 120

plane wave coefficients: 7794
cutoff: 600.0 eV

spin-components: 4  # (non-collinear spins)
bands: 40
valence electrons: 30.0
spin-degeneracy: 1
dtype: complex128

memory:
    wave functions: 1_203_417_600  # bytes  (100_284_800 per core)

parallelization:
    kpt:    12
    domain: 1
    band:   1

density:
  components: 4
  grid points: [24 24 98]
  charge: 0.0  # |e|

potential:
  grid points: [24 24 98]

species:
  Ni:
    name: Nickel
    id: 1802175e8de9ea26d9f4394ec1a7d564
    Z: 28.0
    valence: 16
    core: 12
    charge: 0.0
    file: /zhome/86/d/1666/PAW/gpaw-setups-0.9.20000/Ni.LDA.gz
    compensation charges: {type: gauss,
                           rc: 0.36,
                           lmax: 2}
    cutoffs: {filter: 2.14,
              core: 1.98}
    valence states:
      #              energy  rcut
      - 4s(2.00)    -5.858   1.164
      - 3p(6.00)   -71.266   1.207
      - 4p(0.00)    -1.338   1.207
      - 3d(8.00)    -9.141   1.138
      -  s          21.353   1.164
      -  d          18.071   1.138
  
    # Using partial waves for Ni as LCAO basis

  I:
    name: Iodine
    id: b559721c0c096a7b4c8fc0e0f4de5cf4
    Z: 53.0
    valence: 7
    core: 46
    charge: 0.0
    file: /zhome/86/d/1666/PAW/gpaw-setups-0.9.20000/I.LDA.gz
    compensation charges: {type: gauss,
                           rc: 0.37,
                           lmax: 2}
    cutoffs: {filter: 2.06,
              core: 2.90}
    valence states:
      #              energy  rcut
      - 5s(2.00)   -17.626   1.164
      - 5p(5.00)    -7.241   1.164
      -  s           9.585   1.164
      -  p          19.970   1.164
      -  d           0.000   1.164
  
    # Using partial waves for I as LCAO basis

Reference energy: -428067.566327  # eV

eigensolver:
  name: 'Davidson'
  niter: 2
  converge_bands: 'occupied'
Density mixing:
  Method: sum
  Backend: pulay
  Linear mixing parameter: 0.05
  old densities: 5
  Damping of long wavelength oscillations: 100
occupation numbers:
  Fermi-Dirac:
    width: 0.1000  # eV
  

poisson solver:
  ecut: 4800.0  # eV

xc functional:
  name: None

convergence criteria:
- Maximum [total energy] change in last 3 cyles: 0.0005 eV / valence electron
- Maximum integral of absolute [dens]ity change: 0.0001 electrons / valence electron
- Maximum integral of absolute [eigenst]ate change: 4e-08 eV^2 / valence electron
maximum number of iterations: 333

#      iter     time        total  log10-change:
#                          energy   eigst   dens
# iter:   1 15:21:29   -13.983931                  +1.0,+0.0,+0.0
# iter:   2 15:21:47   -12.696955   -0.53  -1.31   +1.0,+0.0,+0.0
# iter:   3 15:22:05   -12.232532   -0.71  -1.45   +1.2,+0.0,+0.0
# iter:   4 15:22:24   -12.276302   -1.27  -1.68   +1.4,+0.0,-0.0
# iter:   5 15:22:42   -12.565338   -1.38  -1.66   +1.4,+0.0,-0.0
# iter:   6 15:23:00   -12.286142   -1.61  -1.71   +1.5,+0.0,+0.0
# iter:   7 15:23:18   -12.274462   -1.97  -2.16   +1.5,+0.0,+0.0
# iter:   8 15:23:36   -12.283792c  -2.23  -2.33   +1.6,+0.0,+0.0
# iter:   9 15:23:54   -12.281243c  -2.36  -2.42   +1.7,+0.0,+0.0
# iter:  10 15:24:12   -12.280891c  -2.65  -2.96   +1.7,+0.0,-0.0
# iter:  11 15:24:30   -12.285747c  -2.81  -2.82   +1.7,+0.0,-0.0
# iter:  12 15:24:49   -12.288026c  -2.97  -3.16   +1.7,+0.0,-0.0
# iter:  13 15:25:07   -12.289156c  -3.16  -2.92   +1.7,+0.0,-0.0
# iter:  14 15:25:25   -12.290147c  -3.37  -3.18   +1.8,+0.0,+0.0
# iter:  15 15:25:43   -12.288396c  -3.44  -3.06   +1.8,+0.0,-0.0
# iter:  16 15:26:01   -12.289179c  -3.69  -3.47   +1.8,+0.0,-0.0
# iter:  17 15:26:19   -12.289907c  -3.81  -3.60   +1.8,+0.0,-0.0
# iter:  18 15:26:37   -12.290027c  -4.02  -3.71   +1.8,+0.0,-0.0
# iter:  19 15:26:55   -12.290011c  -4.19  -3.89   +1.8,+0.0,-0.0
# iter:  20 15:27:13   -12.290025c  -4.34  -3.89   +1.8,+0.0,-0.0
# iter:  21 15:27:31   -12.290490c  -4.47  -3.85   +1.8,+0.0,-0.0
# iter:  22 15:27:49   -12.290627c  -4.63  -3.86   +1.8,+0.0,-0.0
# iter:  23 15:28:07   -12.290676c  -4.80  -4.05c  +1.8,+0.0,-0.0
# iter:  24 15:28:25   -12.290772c  -4.95  -4.05c  +1.8,+0.0,-0.0
# iter:  25 15:28:44   -12.290834c  -5.10  -4.05c  +1.8,+0.0,-0.0
# iter:  26 15:29:02   -12.290974c  -5.25  -4.09c  +1.8,+0.0,-0.0
# iter:  27 15:29:20   -12.290939c  -5.41  -4.13c  +1.8,+0.0,-0.0
# iter:  28 15:29:38   -12.291010c  -5.57  -4.21c  +1.8,+0.0,-0.0
# iter:  29 15:29:56   -12.291013c  -5.72  -4.27c  +1.8,+0.0,-0.0
# iter:  30 15:30:14   -12.291046c  -5.87  -4.29c  +1.8,+0.0,-0.0
# iter:  31 15:30:32   -12.290981c  -6.02  -4.26c  +1.8,+0.0,-0.0
# iter:  32 15:30:50   -12.291064c  -6.12  -4.24c  +1.8,+0.0,-0.0
# iter:  33 15:31:08   -12.291131c  -6.29  -4.24c  +1.8,+0.0,-0.0
# iter:  34 15:31:26   -12.291403c  -6.08  -4.31c  +1.8,+0.0,-0.0
# iter:  35 15:31:44   -12.291468c  -6.42  -4.62c  +1.8,+0.0,-0.0
# iter:  36 15:32:02   -12.291450c  -6.80  -4.90c  +1.8,+0.0,-0.0
# iter:  37 15:32:20   -12.291450c  -7.01  -4.99c  +1.8,+0.0,-0.0
# iter:  38 15:32:38   -12.291520c  -7.01  -5.03c  +1.8,+0.0,-0.0
# iter:  39 15:32:56   -12.291520c  -7.31  -5.14c  +1.8,+0.0,-0.0
# iter:  40 15:33:15   -12.291498c  -7.49c -5.25c  +1.8,+0.0,-0.0
scf_steps: 40
energies:  # eV
  coulomb:          -8.060737
  zero:              0.065601
  xc:              -14.957851
  external:          0.000000
  kinetic:          10.687859
  spinorbit:         0.000000
  entropy:          -0.052741
  total:           -12.317868
  extrapolated:    -12.291498

dipole moment: [-4.163850, -7.211853, -7.224246]  # |e|*Ang

total magnetic moment: [1.811692, 0.007498, -0.000000]

local magnetic moments: [
  [ 1.146841,  0.000000, -0.000000],  # Ni 0
  [ 0.180327, -0.027182, -0.000000],  # I  1
  [ 0.180328, -0.027178, -0.000000]]  # I  2


Fermi level: -1.674 eV

kpt = [-0.455, -0.455, 0.000], weight = 0.008:
  Band      eig [eV]   occ [0-1]
     0       -65.468       1.000
   ...
    22        -3.627       1.000
    23        -3.498       1.000
    24        -3.394       1.000
    25        -2.784       1.000
    26        -2.653       1.000
    27        -2.621       1.000
    28        -2.106       0.987
    29        -2.071       0.982
    30        -1.165       0.006
    31        -1.161       0.006
    32         1.187       0.000
    33         1.515       0.000
    34         3.357       0.000
    35         3.757       0.000
    36         4.114       0.000
    37         4.184       0.000
   ...
    39         4.392       0.000

kpt = [-0.455, -0.364, 0.000], weight = 0.008:
  Band      eig [eV]   occ [0-1]
     0       -65.468       1.000
   ...
    22        -3.564       1.000
    23        -3.438       1.000
    24        -3.284       1.000
    25        -2.737       1.000
    26        -2.630       1.000
    27        -2.535       1.000
    28        -2.394       0.999
    29        -2.147       0.991
    30        -1.425       0.077
    31        -1.199       0.009
    32         1.705       0.000
    33         2.016       0.000
    34         3.965       0.000
    35         4.083       0.000
    36         4.429       0.000
    37         4.558       0.000
   ...
    39         4.860       0.000

kpt = [-0.455, -0.273, 0.000], weight = 0.008:
  Band      eig [eV]   occ [0-1]
     0       -65.468       1.000
   ...
    22        -3.550       1.000
    23        -3.408       1.000
    24        -3.224       1.000
    25        -2.729       1.000
    26        -2.621       1.000
    27        -2.556       1.000
    28        -2.472       1.000
    29        -2.175       0.993
    30        -1.539       0.206
    31        -1.223       0.011
    32         2.027       0.000
    33         2.249       0.000
    34         3.769       0.000
    35         3.934       0.000
    36         4.826       0.000
    37         4.963       0.000
   ...
    39         5.434       0.000
(only showing first 3 out of 121 k-points)

No gap
# Writing to gsq-29.gpw (mode='')

---

timing:  # [seconds]
  Total: 735.197  # ━━━━━━━━━━━━━━━━━━━━━━━━━━━━━━━━━━━━━━━━━━━━━━━━━━━━━━━━━
  Init:   11.372  # ━
  SCF:   723.182  # ━━━━━━━━━━━━━━━━━━━━━━━━━━━━━━━━━━━━━━━━━━━━━━━━━━━━━━━━

Max RSS: 1605.645  # MiB
