#  __  _  _
# | _ |_)|_||  |
# |__||  | ||/\| - 24.1.0

User:   s194113@n-62-29-13
Date:   Tue Apr 23 14:55:59 2024
Arch:   x86_64
Pid:    31044
CWD:    /zhome/87/8/147075/10302/10302_NM/NiI2/V_con
Python: 3.8.5
gpaw:   /zhome/87/8/147075/venv-name/gpaw/gpaw (10808453a8)
_gpaw:  /zhome/87/8/147075/venv-name/gpaw/
        _gpaw.cpython-38-x86_64-linux-gnu.so (10808453a8)
ase:    /zhome/87/8/147075/venv-name/ase/ase (version 3.23.0b1-c36115a2db)
numpy:  /zhome/87/8/147075/venv-name/lib/python3.8/site-packages/numpy (version 1.24.4)
scipy:  /zhome/87/8/147075/venv-name/lib/python3.8/site-packages/scipy (version 1.10.1)
libxc:  4.3.4
units:  Angstrom and eV
cores: 12
OpenMP: False
OMP_NUM_THREADS: 1

---
input parameters:
  kpts: 
    density: 6.0
    gamma: True
  magmoms: [[1, 0, 0], [0, 0, 0], [0, 0, 0]]
  mixer: 
    backend: 'pulay'
    beta: 0.05
    method: 'sum'
    nmaxold: 5
    weight: 100
  mode: 
    name: 'pw'
    ecut: 600
    qspiral: array([0.07142857, 0.07142857, 0.        ])
  parallel: 
    kpt: None
    domain: 1
    band: 1
    order: 'kdb'
    stridebands: False
    augment_grids: False
    sl_auto: False
    sl_default: None
    sl_diagonalize: None
    sl_inverse_cholesky: None
    sl_lcao: None
    sl_lrtddft: None
    use_elpa: False
    elpasolver: '2stage'
    buffer_size: None
    gpu: False
  symmetry: 
    point_group: False
    time_reversal: False
  xc: 
    name: 'LDA'

#                        
#                        
#                        
#                        
#                        
#              I         
#                        
#        Ni              
#          I             
#                        
#                        
#                        
#                        
#                        

atoms: [  # symbols, positions [Ang] and initial magnetic moments
  [ Ni, [   0.000000,    0.000000,    8.513573], [ 1.000,  0.000,  0.000]], # 0
  [  I, [   1.985000,    1.146040,   10.027147], [ 0.000,  0.000,  0.000]], # 1
  [  I, [  -0.000000,    2.292081,    7.000000], [ 0.000,  0.000,  0.000]]] # 2

cell: [  # Ang
#     x            y            z
  [   3.970000,    0.000000,    0.000000],
  [  -1.985000,    3.438121,    0.000000],
  [   0.000000,   -0.000000,   17.027147]]

periodic: [True      , True      , False     ]
lengths:  [  3.970000,   3.970000,  17.027147]  # Ang
angles:   [ 90.000000,  90.000000, 120.000000]

symmetry:
  number of symmetries: 1
  rotations: [
    [[ 1,  0,  0], [ 0,  1,  0], [ 0,  0,  1]]]

bz sampling:
  number of bz points: 121
  number of ibz points: 121
  monkhorst-pack size: [11, 11, 1]
  monkhorst-pack shift: [0, 0, 0]
  points and weights: [
    [[ -0.45454545,  -0.45454545,   0.00000000], 0.00826446],  # 0
    [[ -0.45454545,  -0.36363636,   0.00000000], 0.00826446],  # 1
    [[ -0.45454545,  -0.27272727,   0.00000000], 0.00826446],  # 2
    [[ -0.45454545,  -0.18181818,   0.00000000], 0.00826446],  # 3
    [[ -0.45454545,  -0.09090909,   0.00000000], 0.00826446],  # 4
    [[ -0.45454545,   0.00000000,   0.00000000], 0.00826446],  # 5
    [[ -0.45454545,   0.09090909,   0.00000000], 0.00826446],  # 6
    [[ -0.45454545,   0.18181818,   0.00000000], 0.00826446],  # 7
    [[ -0.45454545,   0.27272727,   0.00000000], 0.00826446],  # 8
    [[ -0.45454545,   0.36363636,   0.00000000], 0.00826446],  # 9
    # ...
    [[  0.45454545,   0.45454545,   0.00000000], 0.00826446]]  # 120

plane wave coefficients: 7794
cutoff: 600.0 eV

spin-components: 4  # (non-collinear spins)
bands: 40
valence electrons: 30.0
spin-degeneracy: 1
dtype: complex128

memory:
    wave functions: 1_203_417_600  # bytes  (100_284_800 per core)

parallelization:
    kpt:    12
    domain: 1
    band:   1

density:
  components: 4
  grid points: [24 24 98]
  charge: 0.0  # |e|

potential:
  grid points: [24 24 98]

species:
  Ni:
    name: Nickel
    id: 1802175e8de9ea26d9f4394ec1a7d564
    Z: 28.0
    valence: 16
    core: 12
    charge: 0.0
    file: /zhome/86/d/1666/PAW/gpaw-setups-0.9.20000/Ni.LDA.gz
    compensation charges: {type: gauss,
                           rc: 0.36,
                           lmax: 2}
    cutoffs: {filter: 2.14,
              core: 1.98}
    valence states:
      #              energy  rcut
      - 4s(2.00)    -5.858   1.164
      - 3p(6.00)   -71.266   1.207
      - 4p(0.00)    -1.338   1.207
      - 3d(8.00)    -9.141   1.138
      -  s          21.353   1.164
      -  d          18.071   1.138
  
    # Using partial waves for Ni as LCAO basis

  I:
    name: Iodine
    id: b559721c0c096a7b4c8fc0e0f4de5cf4
    Z: 53.0
    valence: 7
    core: 46
    charge: 0.0
    file: /zhome/86/d/1666/PAW/gpaw-setups-0.9.20000/I.LDA.gz
    compensation charges: {type: gauss,
                           rc: 0.37,
                           lmax: 2}
    cutoffs: {filter: 2.06,
              core: 2.90}
    valence states:
      #              energy  rcut
      - 5s(2.00)   -17.626   1.164
      - 5p(5.00)    -7.241   1.164
      -  s           9.585   1.164
      -  p          19.970   1.164
      -  d           0.000   1.164
  
    # Using partial waves for I as LCAO basis

Reference energy: -428067.566327  # eV

eigensolver:
  name: 'Davidson'
  niter: 2
  converge_bands: 'occupied'
Density mixing:
  Method: sum
  Backend: pulay
  Linear mixing parameter: 0.05
  old densities: 5
  Damping of long wavelength oscillations: 100
occupation numbers:
  Fermi-Dirac:
    width: 0.1000  # eV
  

poisson solver:
  ecut: 4800.0  # eV

xc functional:
  name: None

convergence criteria:
- Maximum [total energy] change in last 3 cyles: 0.0005 eV / valence electron
- Maximum integral of absolute [dens]ity change: 0.0001 electrons / valence electron
- Maximum integral of absolute [eigenst]ate change: 4e-08 eV^2 / valence electron
maximum number of iterations: 333

#      iter     time        total  log10-change:
#                          energy   eigst   dens
# iter:   1 14:56:27   -13.931156                  +1.0,+0.0,+0.0
# iter:   2 14:56:45   -12.694183   -0.47  -1.31   +1.0,+0.0,+0.0
# iter:   3 14:57:03   -12.237383   -0.71  -1.45   +1.2,+0.0,+0.0
# iter:   4 14:57:21   -12.291408   -1.39  -1.68   +1.3,+0.0,+0.0
# iter:   5 14:57:39   -12.538500   -1.49  -1.66   +1.4,+0.0,+0.0
# iter:   6 14:57:57   -12.300093   -1.69  -1.75   +1.5,+0.0,+0.0
# iter:   7 14:58:14   -12.300179   -2.13  -2.20   +1.5,+0.0,+0.0
# iter:   8 14:58:32   -12.297083c  -2.32  -2.30   +1.6,+0.0,+0.0
# iter:   9 14:58:50   -12.297665c  -2.53  -2.64   +1.6,+0.0,+0.0
# iter:  10 14:59:08   -12.298749c  -2.76  -2.96   +1.6,+0.0,+0.0
# iter:  11 14:59:25   -12.303247c  -2.96  -2.92   +1.7,+0.0,+0.0
# iter:  12 14:59:43   -12.303402c  -3.10  -3.31   +1.7,+0.0,+0.0
# iter:  13 15:00:01   -12.303615c  -3.29  -3.63   +1.7,+0.0,+0.0
# iter:  14 15:00:19   -12.303904c  -3.45  -3.73   +1.7,+0.0,+0.0
# iter:  15 15:00:37   -12.303980c  -3.60  -3.71   +1.7,+0.0,-0.0
# iter:  16 15:00:55   -12.304033c  -3.74  -3.78   +1.7,+0.0,-0.0
# iter:  17 15:01:12   -12.303893c  -3.87  -3.79   +1.7,+0.0,+0.0
# iter:  18 15:01:30   -12.304311c  -4.03  -3.60   +1.7,+0.0,-0.0
# iter:  19 15:01:48   -12.304338c  -4.18  -3.77   +1.7,+0.0,-0.0
# iter:  20 15:02:05   -12.304461c  -4.33  -3.79   +1.7,+0.0,-0.0
# iter:  21 15:02:23   -12.304815c  -4.47  -3.82   +1.7,+0.0,-0.0
# iter:  22 15:02:41   -12.304916c  -4.63  -3.87   +1.7,+0.0,-0.0
# iter:  23 15:02:59   -12.305124c  -4.76  -3.87   +1.7,+0.0,-0.0
# iter:  24 15:03:16   -12.305346c  -4.87  -3.92   +1.7,+0.0,-0.0
# iter:  25 15:03:34   -12.305355c  -5.07  -4.13c  +1.7,+0.0,+0.0
# iter:  26 15:03:52   -12.305365c  -5.18  -4.12c  +1.7,+0.0,+0.0
# iter:  27 15:04:10   -12.305394c  -5.36  -3.94   +1.7,+0.0,+0.0
# iter:  28 15:04:28   -12.305453c  -5.52  -3.93   +1.7,+0.0,+0.0
# iter:  29 15:04:45   -12.305488c  -5.67  -3.96   +1.7,+0.0,+0.0
# iter:  30 15:05:03   -12.305636c  -5.74  -3.97   +1.7,+0.0,+0.0
# iter:  31 15:05:21   -12.305629c  -5.94  -4.13c  +1.7,+0.0,+0.0
# iter:  32 15:05:39   -12.305812c  -5.91  -4.16c  +1.8,+0.0,+0.0
# iter:  33 15:05:56   -12.305808c  -6.20  -4.33c  +1.8,+0.0,+0.0
# iter:  34 15:06:14   -12.305709c  -6.32  -4.43c  +1.7,+0.0,+0.0
# iter:  35 15:06:32   -12.305685c  -6.52  -4.84c  +1.7,+0.0,+0.0
# iter:  36 15:06:50   -12.305672c  -6.69  -5.02c  +1.7,+0.0,+0.0
# iter:  37 15:07:08   -12.305708c  -6.82  -5.07c  +1.7,+0.0,+0.0
# iter:  38 15:07:25   -12.305718c  -6.98  -5.26c  +1.7,+0.0,+0.0
# iter:  39 15:07:43   -12.305715c  -7.12  -5.40c  +1.7,+0.0,+0.0
# iter:  40 15:08:01   -12.305730c  -7.24  -5.55c  +1.7,+0.0,+0.0
# iter:  41 15:08:19   -12.305729c  -7.39  -5.88c  +1.7,+0.0,+0.0
# iter:  42 15:08:36   -12.305730c  -7.53c -5.91c  +1.7,+0.0,+0.0
scf_steps: 42
energies:  # eV
  coulomb:          -7.891910
  zero:              0.066255
  xc:              -14.936184
  external:          0.000000
  kinetic:          10.478201
  spinorbit:         0.000000
  entropy:          -0.044184
  total:           -12.327821
  extrapolated:    -12.305730

dipole moment: [-4.102706, -7.105699, -6.656170]  # |e|*Ang

total magnetic moment: [1.749951, 0.020348, 0.000000]

local magnetic moments: [
  [ 1.144104, -0.000000,  0.000000],  # Ni 0
  [ 0.153815, -0.074071,  0.000000],  # I  1
  [ 0.153813, -0.074075,  0.000000]]  # I  2


Fermi level: -1.675 eV

kpt = [-0.455, -0.455, 0.000], weight = 0.008:
  Band      eig [eV]   occ [0-1]
     0       -65.462       1.000
   ...
    22        -3.625       1.000
    23        -3.479       1.000
    24        -3.404       1.000
    25        -2.784       1.000
    26        -2.646       1.000
    27        -2.621       1.000
    28        -2.128       0.989
    29        -2.114       0.988
    30        -1.178       0.007
    31        -1.160       0.006
    32         1.080       0.000
    33         1.751       0.000
    34         3.146       0.000
    35         4.068       0.000
    36         4.093       0.000
    37         4.174       0.000
   ...
    39         4.616       0.000

kpt = [-0.455, -0.364, 0.000], weight = 0.008:
  Band      eig [eV]   occ [0-1]
     0       -65.462       1.000
   ...
    22        -3.554       1.000
    23        -3.434       1.000
    24        -3.303       1.000
    25        -2.760       1.000
    26        -2.634       1.000
    27        -2.562       1.000
    28        -2.334       0.999
    29        -2.144       0.991
    30        -1.368       0.044
    31        -1.211       0.010
    32         1.464       0.000
    33         2.101       0.000
    34         3.702       0.000
    35         4.035       0.000
    36         4.195       0.000
    37         4.418       0.000
   ...
    39         4.979       0.000

kpt = [-0.455, -0.273, 0.000], weight = 0.008:
  Band      eig [eV]   occ [0-1]
     0       -65.462       1.000
   ...
    22        -3.529       1.000
    23        -3.407       1.000
    24        -3.233       1.000
    25        -2.755       1.000
    26        -2.631       1.000
    27        -2.569       1.000
    28        -2.413       0.999
    29        -2.156       0.992
    30        -1.501       0.149
    31        -1.229       0.011
    32         1.949       0.000
    33         2.147       0.000
    34         3.798       0.000
    35         4.096       0.000
    36         4.599       0.000
    37         4.696       0.000
   ...
    39         5.296       0.000
(only showing first 3 out of 121 k-points)

No gap
# Writing to gsq-27.gpw (mode='')

