#  __  _  _
# | _ |_)|_||  |
# |__||  | ||/\| - 24.1.0

User:   s194113@n-62-29-13
Date:   Tue Apr 23 12:07:57 2024
Arch:   x86_64
Pid:    31044
CWD:    /zhome/87/8/147075/10302/10302_NM/NiI2/V_con
Python: 3.8.5
gpaw:   /zhome/87/8/147075/venv-name/gpaw/gpaw (10808453a8)
_gpaw:  /zhome/87/8/147075/venv-name/gpaw/
        _gpaw.cpython-38-x86_64-linux-gnu.so (10808453a8)
ase:    /zhome/87/8/147075/venv-name/ase/ase (version 3.23.0b1-c36115a2db)
numpy:  /zhome/87/8/147075/venv-name/lib/python3.8/site-packages/numpy (version 1.24.4)
scipy:  /zhome/87/8/147075/venv-name/lib/python3.8/site-packages/scipy (version 1.10.1)
libxc:  4.3.4
units:  Angstrom and eV
cores: 12
OpenMP: False
OMP_NUM_THREADS: 1

---
input parameters:
  kpts: 
    density: 6.0
    gamma: True
  magmoms: [[1, 0, 0], [0, 0, 0], [0, 0, 0]]
  mixer: 
    backend: 'pulay'
    beta: 0.05
    method: 'sum'
    nmaxold: 5
    weight: 100
  mode: 
    name: 'pw'
    ecut: 600
    qspiral: array([0.33333333, 0.33333333, 0.        ])
  parallel: 
    kpt: None
    domain: 1
    band: 1
    order: 'kdb'
    stridebands: False
    augment_grids: False
    sl_auto: False
    sl_default: None
    sl_diagonalize: None
    sl_inverse_cholesky: None
    sl_lcao: None
    sl_lrtddft: None
    use_elpa: False
    elpasolver: '2stage'
    buffer_size: None
    gpu: False
  symmetry: 
    point_group: False
    time_reversal: False
  xc: 
    name: 'LDA'

#                        
#                        
#                        
#                        
#                        
#              I         
#                        
#        Ni              
#          I             
#                        
#                        
#                        
#                        
#                        

atoms: [  # symbols, positions [Ang] and initial magnetic moments
  [ Ni, [   0.000000,    0.000000,    8.513573], [ 1.000,  0.000,  0.000]], # 0
  [  I, [   1.985000,    1.146040,   10.027147], [ 0.000,  0.000,  0.000]], # 1
  [  I, [  -0.000000,    2.292081,    7.000000], [ 0.000,  0.000,  0.000]]] # 2

cell: [  # Ang
#     x            y            z
  [   3.970000,    0.000000,    0.000000],
  [  -1.985000,    3.438121,    0.000000],
  [   0.000000,   -0.000000,   17.027147]]

periodic: [True      , True      , False     ]
lengths:  [  3.970000,   3.970000,  17.027147]  # Ang
angles:   [ 90.000000,  90.000000, 120.000000]

symmetry:
  number of symmetries: 1
  rotations: [
    [[ 1,  0,  0], [ 0,  1,  0], [ 0,  0,  1]]]

bz sampling:
  number of bz points: 121
  number of ibz points: 121
  monkhorst-pack size: [11, 11, 1]
  monkhorst-pack shift: [0, 0, 0]
  points and weights: [
    [[ -0.45454545,  -0.45454545,   0.00000000], 0.00826446],  # 0
    [[ -0.45454545,  -0.36363636,   0.00000000], 0.00826446],  # 1
    [[ -0.45454545,  -0.27272727,   0.00000000], 0.00826446],  # 2
    [[ -0.45454545,  -0.18181818,   0.00000000], 0.00826446],  # 3
    [[ -0.45454545,  -0.09090909,   0.00000000], 0.00826446],  # 4
    [[ -0.45454545,   0.00000000,   0.00000000], 0.00826446],  # 5
    [[ -0.45454545,   0.09090909,   0.00000000], 0.00826446],  # 6
    [[ -0.45454545,   0.18181818,   0.00000000], 0.00826446],  # 7
    [[ -0.45454545,   0.27272727,   0.00000000], 0.00826446],  # 8
    [[ -0.45454545,   0.36363636,   0.00000000], 0.00826446],  # 9
    # ...
    [[  0.45454545,   0.45454545,   0.00000000], 0.00826446]]  # 120

plane wave coefficients: 7794
cutoff: 600.0 eV

spin-components: 4  # (non-collinear spins)
bands: 40
valence electrons: 30.0
spin-degeneracy: 1
dtype: complex128

memory:
    wave functions: 1_203_417_600  # bytes  (100_284_800 per core)

parallelization:
    kpt:    12
    domain: 1
    band:   1

density:
  components: 4
  grid points: [24 24 98]
  charge: 0.0  # |e|

potential:
  grid points: [24 24 98]

species:
  Ni:
    name: Nickel
    id: 1802175e8de9ea26d9f4394ec1a7d564
    Z: 28.0
    valence: 16
    core: 12
    charge: 0.0
    file: /zhome/86/d/1666/PAW/gpaw-setups-0.9.20000/Ni.LDA.gz
    compensation charges: {type: gauss,
                           rc: 0.36,
                           lmax: 2}
    cutoffs: {filter: 2.14,
              core: 1.98}
    valence states:
      #              energy  rcut
      - 4s(2.00)    -5.858   1.164
      - 3p(6.00)   -71.266   1.207
      - 4p(0.00)    -1.338   1.207
      - 3d(8.00)    -9.141   1.138
      -  s          21.353   1.164
      -  d          18.071   1.138
  
    # Using partial waves for Ni as LCAO basis

  I:
    name: Iodine
    id: b559721c0c096a7b4c8fc0e0f4de5cf4
    Z: 53.0
    valence: 7
    core: 46
    charge: 0.0
    file: /zhome/86/d/1666/PAW/gpaw-setups-0.9.20000/I.LDA.gz
    compensation charges: {type: gauss,
                           rc: 0.37,
                           lmax: 2}
    cutoffs: {filter: 2.06,
              core: 2.90}
    valence states:
      #              energy  rcut
      - 5s(2.00)   -17.626   1.164
      - 5p(5.00)    -7.241   1.164
      -  s           9.585   1.164
      -  p          19.970   1.164
      -  d           0.000   1.164
  
    # Using partial waves for I as LCAO basis

Reference energy: -428067.566327  # eV

eigensolver:
  name: 'Davidson'
  niter: 2
  converge_bands: 'occupied'
Density mixing:
  Method: sum
  Backend: pulay
  Linear mixing parameter: 0.05
  old densities: 5
  Damping of long wavelength oscillations: 100
occupation numbers:
  Fermi-Dirac:
    width: 0.1000  # eV
  

poisson solver:
  ecut: 4800.0  # eV

xc functional:
  name: None

convergence criteria:
- Maximum [total energy] change in last 3 cyles: 0.0005 eV / valence electron
- Maximum integral of absolute [dens]ity change: 0.0001 electrons / valence electron
- Maximum integral of absolute [eigenst]ate change: 4e-08 eV^2 / valence electron
maximum number of iterations: 333

#      iter     time        total  log10-change:
#                          energy   eigst   dens
# iter:   1 12:08:25   -12.667660                  +1.0,+0.0,+0.0
# iter:   2 12:08:44   -12.436991   +0.47  -1.31   +0.7,-0.0,-0.0
# iter:   3 12:09:02   -12.169970   -0.20  -1.45   +0.7,-0.0,-0.0
# iter:   4 12:09:20   -12.209511   -0.72  -1.68   +0.8,+0.0,-0.0
# iter:   5 12:09:38   -12.600762   -0.88  -1.69   +0.8,+0.0,+0.0
# iter:   6 12:09:57   -12.278618   -1.12  -1.68   +0.8,+0.0,+0.0
# iter:   7 12:10:15   -12.290798   -1.36  -2.20   +0.8,+0.0,+0.0
# iter:   8 12:10:33   -12.280079c  -1.50  -2.28   +0.9,+0.0,+0.0
# iter:   9 12:10:51   -12.281449c  -1.66  -2.70   +0.9,+0.0,-0.0
# iter:  10 12:11:10   -12.287649c  -1.79  -2.84   +0.9,+0.0,-0.0
# iter:  11 12:11:28   -12.284780c  -1.92  -2.78   +1.0,+0.0,-0.0
# iter:  12 12:11:46   -12.289706c  -2.07  -2.92   +1.0,+0.0,+0.0
# iter:  13 12:12:04   -12.290084c  -2.20  -3.17   +1.0,-0.0,+0.0
# iter:  14 12:12:22   -12.290341c  -2.33  -3.49   +1.0,-0.0,+0.0
# iter:  15 12:12:41   -12.290925c  -2.45  -3.68   +1.0,-0.0,+0.0
# iter:  16 12:12:59   -12.291058c  -2.57  -3.72   +1.0,-0.0,+0.0
# iter:  17 12:13:17   -12.291127c  -2.69  -3.74   +1.0,-0.0,+0.0
# iter:  18 12:13:35   -12.291421c  -2.81  -3.76   +1.0,-0.0,+0.0
# iter:  19 12:13:53   -12.291337c  -2.93  -3.69   +1.0,-0.0,+0.0
# iter:  20 12:14:12   -12.291162c  -3.05  -3.74   +1.0,-0.0,+0.0
# iter:  21 12:14:30   -12.291843c  -3.17  -3.74   +1.0,-0.0,+0.0
# iter:  22 12:14:48   -12.291807c  -3.29  -3.72   +1.0,-0.0,+0.0
# iter:  23 12:15:06   -12.292000c  -3.41  -3.72   +1.0,-0.0,+0.0
# iter:  24 12:15:24   -12.291756c  -3.53  -3.71   +1.0,-0.0,+0.0
# iter:  25 12:15:42   -12.291960c  -3.64  -3.72   +1.0,-0.0,+0.0
# iter:  26 12:16:01   -12.292195c  -3.76  -3.69   +1.0,-0.0,+0.0
# iter:  27 12:16:19   -12.293334c  -3.85  -3.76   +1.0,-0.0,+0.0
# iter:  28 12:16:37   -12.293454c  -4.00  -3.88   +1.0,-0.0,+0.0
# iter:  29 12:16:55   -12.293731c  -4.12  -3.89   +1.1,-0.0,+0.0
# iter:  30 12:17:13   -12.293700c  -4.23  -3.97   +1.0,+0.0,+0.0
# iter:  31 12:17:31   -12.293754c  -4.36  -4.07c  +1.1,+0.0,+0.0
# iter:  32 12:17:49   -12.294021c  -4.46  -4.09c  +1.1,+0.0,+0.0
# iter:  33 12:18:07   -12.293921c  -4.59  -4.20c  +1.1,+0.0,+0.0
# iter:  34 12:18:25   -12.293832c  -4.71  -4.29c  +1.1,+0.0,+0.0
# iter:  35 12:18:43   -12.293776c  -4.82  -4.39c  +1.1,+0.0,+0.0
# iter:  36 12:19:02   -12.293805c  -4.95  -4.47c  +1.1,+0.0,+0.0
# iter:  37 12:19:20   -12.293759c  -5.07  -4.66c  +1.1,+0.0,+0.0
# iter:  38 12:19:38   -12.293743c  -5.19  -4.89c  +1.1,+0.0,+0.0
# iter:  39 12:19:56   -12.293727c  -5.31  -5.01c  +1.1,+0.0,+0.0
# iter:  40 12:20:14   -12.293711c  -5.44  -5.16c  +1.1,+0.0,+0.0
# iter:  41 12:20:32   -12.293719c  -5.56  -5.36c  +1.1,+0.0,+0.0
# iter:  42 12:20:50   -12.293716c  -5.68  -5.64c  +1.1,+0.0,+0.0
# iter:  43 12:21:09   -12.293714c  -5.81  -5.69c  +1.1,+0.0,+0.0
# iter:  44 12:21:27   -12.293712c  -5.93  -5.89c  +1.1,+0.0,+0.0
# iter:  45 12:21:45   -12.293711c  -6.06  -6.04c  +1.0,+0.0,+0.0
# iter:  46 12:22:03   -12.293711c  -6.18  -6.16c  +1.0,+0.0,+0.0
# iter:  47 12:22:21   -12.293712c  -6.31  -6.15c  +1.1,+0.0,+0.0
# iter:  48 12:22:40   -12.293712c  -6.44  -6.81c  +1.1,+0.0,+0.0
# iter:  49 12:22:58   -12.293712c  -6.57  -6.86c  +1.1,+0.0,+0.0
# iter:  50 12:23:16   -12.293712c  -6.69  -6.79c  +1.1,+0.0,+0.0
# iter:  51 12:23:34   -12.293712c  -6.82  -6.72c  +1.1,+0.0,+0.0
# iter:  52 12:23:52   -12.293712c  -6.95  -6.69c  +1.1,+0.0,+0.0
# iter:  53 12:24:10   -12.293712c  -7.08  -6.70c  +1.1,+0.0,+0.0
# iter:  54 12:24:28   -12.293712c  -7.21  -6.70c  +1.1,+0.0,+0.0
# iter:  55 12:24:46   -12.293712c  -7.34  -6.62c  +1.1,+0.0,+0.0
# iter:  56 12:25:04   -12.293712c  -7.47c -6.73c  +1.1,+0.0,+0.0
scf_steps: 56
energies:  # eV
  coulomb:          -7.664556
  zero:              0.066823
  xc:              -14.871318
  external:          0.000000
  kinetic:          10.196599
  spinorbit:         0.000000
  entropy:          -0.042520
  total:           -12.314972
  extrapolated:    -12.293712

dipole moment: [-3.393348, -5.876911, -0.633968]  # |e|*Ang

total magnetic moment: [1.050008, 0.000005, 0.000000]

local magnetic moments: [
  [ 1.111787, -0.000000,  0.000000],  # Ni 0
  [ 0.000014, -0.000026,  0.000000],  # I  1
  [-0.000030, -0.000001,  0.000000]]  # I  2


Fermi level: -1.693 eV

kpt = [-0.455, -0.455, 0.000], weight = 0.008:
  Band      eig [eV]   occ [0-1]
     0       -65.431       1.000
   ...
    22        -3.501       1.000
    23        -3.304       1.000
    24        -3.274       1.000
    25        -2.833       1.000
    26        -2.609       1.000
    27        -2.591       1.000
    28        -2.317       0.998
    29        -2.306       0.998
    30        -1.441       0.074
    31        -1.406       0.053
    32         1.993       0.000
    33         2.143       0.000
    34         3.967       0.000
    35         4.261       0.000
    36         4.416       0.000
    37         4.796       0.000
   ...
    39         5.714       0.000

kpt = [-0.455, -0.364, 0.000], weight = 0.008:
  Band      eig [eV]   occ [0-1]
     0       -65.431       1.000
   ...
    22        -3.421       1.000
    23        -3.372       1.000
    24        -3.271       1.000
    25        -2.890       1.000
    26        -2.685       1.000
    27        -2.595       1.000
    28        -2.219       0.995
    29        -2.135       0.988
    30        -1.410       0.056
    31        -1.291       0.018
    32         1.691       0.000
    33         2.095       0.000
    34         3.705       0.000
    35         3.969       0.000
    36         4.397       0.000
    37         4.523       0.000
   ...
    39         4.853       0.000

kpt = [-0.455, -0.273, 0.000], weight = 0.008:
  Band      eig [eV]   occ [0-1]
     0       -65.431       1.000
   ...
    22        -3.471       1.000
    23        -3.372       1.000
    24        -3.250       1.000
    25        -2.856       1.000
    26        -2.767       1.000
    27        -2.577       1.000
    28        -2.100       0.983
    29        -1.945       0.926
    30        -1.381       0.042
    31        -1.169       0.005
    32         1.327       0.000
    33         1.847       0.000
    34         3.365       0.000
    35         3.596       0.000
    36         3.933       0.000
    37         4.043       0.000
   ...
    39         4.544       0.000
(only showing first 3 out of 121 k-points)

Gap: 0.446 eV
Transition (v -> c):
  (s=0, k=43, n=29, [-0.18, 0.45, 0.00]) -> (s=0, k=60, n=30, [0.00, 0.00, 0.00])
# Writing to gsq-16.gpw (mode='')

━━━━━━━━━━━━━━━━━━━━━━━━━━━
  Init:    10.765  # ╸
  SCF:    968.127  # ━━━━━━━━━━━━━━━━━━━━━━━━━━━━

Max RSS: 1031.176  # MiB
