#  __  _  _
# | _ |_)|_||  |
# |__||  | ||/\| - 24.1.0

User:   s194113@n-62-29-13
Date:   Tue Apr 23 09:26:41 2024
Arch:   x86_64
Pid:    31044
CWD:    /zhome/87/8/147075/10302/10302_NM/NiI2/V_con
Python: 3.8.5
gpaw:   /zhome/87/8/147075/venv-name/gpaw/gpaw (10808453a8)
_gpaw:  /zhome/87/8/147075/venv-name/gpaw/
        _gpaw.cpython-38-x86_64-linux-gnu.so (10808453a8)
ase:    /zhome/87/8/147075/venv-name/ase/ase (version 3.23.0b1-c36115a2db)
numpy:  /zhome/87/8/147075/venv-name/lib/python3.8/site-packages/numpy (version 1.24.4)
scipy:  /zhome/87/8/147075/venv-name/lib/python3.8/site-packages/scipy (version 1.10.1)
libxc:  4.3.4
units:  Angstrom and eV
cores: 12
OpenMP: False
OMP_NUM_THREADS: 1

---
input parameters:
  kpts: 
    density: 6.0
    gamma: True
  magmoms: [[1, 0, 0], [0, 0, 0], [0, 0, 0]]
  mixer: 
    backend: 'pulay'
    beta: 0.05
    method: 'sum'
    nmaxold: 5
    weight: 100
  mode: 
    name: 'pw'
    ecut: 600
    qspiral: array([0.3, 0. , 0. ])
  parallel: 
    kpt: None
    domain: 1
    band: 1
    order: 'kdb'
    stridebands: False
    augment_grids: False
    sl_auto: False
    sl_default: None
    sl_diagonalize: None
    sl_inverse_cholesky: None
    sl_lcao: None
    sl_lrtddft: None
    use_elpa: False
    elpasolver: '2stage'
    buffer_size: None
    gpu: False
  symmetry: 
    point_group: False
    time_reversal: False
  xc: 
    name: 'LDA'

#                        
#                        
#                        
#                        
#                        
#              I         
#                        
#        Ni              
#          I             
#                        
#                        
#                        
#                        
#                        

atoms: [  # symbols, positions [Ang] and initial magnetic moments
  [ Ni, [   0.000000,    0.000000,    8.513573], [ 1.000,  0.000,  0.000]], # 0
  [  I, [   1.985000,    1.146040,   10.027147], [ 0.000,  0.000,  0.000]], # 1
  [  I, [  -0.000000,    2.292081,    7.000000], [ 0.000,  0.000,  0.000]]] # 2

cell: [  # Ang
#     x            y            z
  [   3.970000,    0.000000,    0.000000],
  [  -1.985000,    3.438121,    0.000000],
  [   0.000000,   -0.000000,   17.027147]]

periodic: [True      , True      , False     ]
lengths:  [  3.970000,   3.970000,  17.027147]  # Ang
angles:   [ 90.000000,  90.000000, 120.000000]

symmetry:
  number of symmetries: 1
  rotations: [
    [[ 1,  0,  0], [ 0,  1,  0], [ 0,  0,  1]]]

bz sampling:
  number of bz points: 121
  number of ibz points: 121
  monkhorst-pack size: [11, 11, 1]
  monkhorst-pack shift: [0, 0, 0]
  points and weights: [
    [[ -0.45454545,  -0.45454545,   0.00000000], 0.00826446],  # 0
    [[ -0.45454545,  -0.36363636,   0.00000000], 0.00826446],  # 1
    [[ -0.45454545,  -0.27272727,   0.00000000], 0.00826446],  # 2
    [[ -0.45454545,  -0.18181818,   0.00000000], 0.00826446],  # 3
    [[ -0.45454545,  -0.09090909,   0.00000000], 0.00826446],  # 4
    [[ -0.45454545,   0.00000000,   0.00000000], 0.00826446],  # 5
    [[ -0.45454545,   0.09090909,   0.00000000], 0.00826446],  # 6
    [[ -0.45454545,   0.18181818,   0.00000000], 0.00826446],  # 7
    [[ -0.45454545,   0.27272727,   0.00000000], 0.00826446],  # 8
    [[ -0.45454545,   0.36363636,   0.00000000], 0.00826446],  # 9
    # ...
    [[  0.45454545,   0.45454545,   0.00000000], 0.00826446]]  # 120

plane wave coefficients: 7794
cutoff: 600.0 eV

spin-components: 4  # (non-collinear spins)
bands: 40
valence electrons: 30.0
spin-degeneracy: 1
dtype: complex128

memory:
    wave functions: 1_203_417_600  # bytes  (100_284_800 per core)

parallelization:
    kpt:    12
    domain: 1
    band:   1

density:
  components: 4
  grid points: [24 24 98]
  charge: 0.0  # |e|

potential:
  grid points: [24 24 98]

species:
  Ni:
    name: Nickel
    id: 1802175e8de9ea26d9f4394ec1a7d564
    Z: 28.0
    valence: 16
    core: 12
    charge: 0.0
    file: /zhome/86/d/1666/PAW/gpaw-setups-0.9.20000/Ni.LDA.gz
    compensation charges: {type: gauss,
                           rc: 0.36,
                           lmax: 2}
    cutoffs: {filter: 2.14,
              core: 1.98}
    valence states:
      #              energy  rcut
      - 4s(2.00)    -5.858   1.164
      - 3p(6.00)   -71.266   1.207
      - 4p(0.00)    -1.338   1.207
      - 3d(8.00)    -9.141   1.138
      -  s          21.353   1.164
      -  d          18.071   1.138
  
    # Using partial waves for Ni as LCAO basis

  I:
    name: Iodine
    id: b559721c0c096a7b4c8fc0e0f4de5cf4
    Z: 53.0
    valence: 7
    core: 46
    charge: 0.0
    file: /zhome/86/d/1666/PAW/gpaw-setups-0.9.20000/I.LDA.gz
    compensation charges: {type: gauss,
                           rc: 0.37,
                           lmax: 2}
    cutoffs: {filter: 2.06,
              core: 2.90}
    valence states:
      #              energy  rcut
      - 5s(2.00)   -17.626   1.164
      - 5p(5.00)    -7.241   1.164
      -  s           9.585   1.164
      -  p          19.970   1.164
      -  d           0.000   1.164
  
    # Using partial waves for I as LCAO basis

Reference energy: -428067.566327  # eV

eigensolver:
  name: 'Davidson'
  niter: 2
  converge_bands: 'occupied'
Density mixing:
  Method: sum
  Backend: pulay
  Linear mixing parameter: 0.05
  old densities: 5
  Damping of long wavelength oscillations: 100
occupation numbers:
  Fermi-Dirac:
    width: 0.1000  # eV
  

poisson solver:
  ecut: 4800.0  # eV

xc functional:
  name: None

convergence criteria:
- Maximum [total energy] change in last 3 cyles: 0.0005 eV / valence electron
- Maximum integral of absolute [dens]ity change: 0.0001 electrons / valence electron
- Maximum integral of absolute [eigenst]ate change: 4e-08 eV^2 / valence electron
maximum number of iterations: 333

#      iter     time        total  log10-change:
#                          energy   eigst   dens
# iter:   1 09:27:09   -13.654836                  +1.0,+0.0,+0.0
# iter:   2 09:27:27   -12.647436   -0.06  -1.31   +0.9,+0.0,+0.0
# iter:   3 09:27:45   -12.224145   -0.52  -1.45   +1.0,+0.0,+0.0
# iter:   4 09:28:03   -12.296494   -1.14  -1.68   +1.1,+0.0,+0.0
# iter:   5 09:28:21   -12.539515   -1.29  -1.65   +1.2,+0.0,-0.0
# iter:   6 09:28:39   -12.304098   -1.49  -1.75   +1.2,+0.0,-0.0
# iter:   7 09:28:57   -12.293419   -1.77  -2.17   +1.3,+0.0,-0.0
# iter:   8 09:29:15   -12.293397c  -1.97  -2.34   +1.3,+0.0,-0.0
# iter:   9 09:29:33   -12.293480c  -2.13  -2.60   +1.4,+0.0,+0.0
# iter:  10 09:29:51   -12.293538c  -2.33  -3.00   +1.4,+0.0,+0.0
# iter:  11 09:30:09   -12.297799c  -2.48  -2.87   +1.4,+0.0,+0.0
# iter:  12 09:30:27   -12.299351c  -2.62  -3.36   +1.4,+0.0,-0.0
# iter:  13 09:30:45   -12.299429c  -2.77  -3.58   +1.4,+0.0,-0.0
# iter:  14 09:31:03   -12.299500c  -2.91  -3.68   +1.4,+0.0,-0.0
# iter:  15 09:31:20   -12.300014c  -3.04  -3.70   +1.4,+0.0,-0.0
# iter:  16 09:31:38   -12.301010c  -3.17  -3.85   +1.4,+0.0,-0.0
# iter:  17 09:31:56   -12.301195c  -3.31  -4.12c  +1.5,+0.0,-0.0
# iter:  18 09:32:14   -12.301296c  -3.45  -3.91   +1.5,+0.0,-0.0
# iter:  19 09:32:32   -12.301505c  -3.59  -4.28c  +1.5,+0.0,-0.0
# iter:  20 09:32:50   -12.301529c  -3.72  -4.36c  +1.5,+0.0,-0.0
# iter:  21 09:33:08   -12.301488c  -3.86  -4.51c  +1.5,+0.0,-0.0
# iter:  22 09:33:26   -12.301462c  -3.99  -4.56c  +1.5,+0.0,-0.0
# iter:  23 09:33:43   -12.301453c  -4.12  -4.60c  +1.5,+0.0,-0.0
# iter:  24 09:34:01   -12.301465c  -4.25  -4.64c  +1.5,+0.0,-0.0
# iter:  25 09:34:19   -12.301515c  -4.38  -4.71c  +1.5,+0.0,-0.0
# iter:  26 09:34:37   -12.301539c  -4.50  -4.95c  +1.5,+0.0,-0.0
# iter:  27 09:34:55   -12.301545c  -4.63  -5.15c  +1.5,+0.0,-0.0
# iter:  28 09:35:13   -12.301552c  -4.77  -5.17c  +1.5,+0.0,-0.0
# iter:  29 09:35:31   -12.301560c  -4.90  -5.29c  +1.5,+0.0,-0.0
# iter:  30 09:35:49   -12.301558c  -5.03  -5.45c  +1.5,+0.0,-0.0
# iter:  31 09:36:07   -12.301568c  -5.17  -5.44c  +1.5,+0.0,-0.0
# iter:  32 09:36:25   -12.301582c  -5.30  -5.58c  +1.5,+0.0,-0.0
# iter:  33 09:36:43   -12.301583c  -5.43  -5.75c  +1.5,+0.0,-0.0
# iter:  34 09:37:00   -12.301582c  -5.56  -5.78c  +1.5,+0.0,-0.0
# iter:  35 09:37:18   -12.301580c  -5.69  -5.70c  +1.5,+0.0,-0.0
# iter:  36 09:37:36   -12.301584c  -5.83  -5.68c  +1.5,+0.0,-0.0
# iter:  37 09:37:54   -12.301578c  -5.96  -5.68c  +1.5,+0.0,-0.0
# iter:  38 09:38:12   -12.301581c  -6.09  -5.67c  +1.5,+0.0,-0.0
# iter:  39 09:38:30   -12.301586c  -6.23  -5.80c  +1.5,+0.0,-0.0
# iter:  40 09:38:48   -12.301579c  -6.37  -5.78c  +1.5,+0.0,-0.0
# iter:  41 09:39:06   -12.301582c  -6.49  -5.66c  +1.5,+0.0,-0.0
# iter:  42 09:39:24   -12.301581c  -6.63  -5.95c  +1.5,+0.0,-0.0
# iter:  43 09:39:42   -12.301583c  -6.77  -5.88c  +1.5,+0.0,-0.0
# iter:  44 09:40:00   -12.301583c  -6.90  -5.92c  +1.5,+0.0,-0.0
# iter:  45 09:40:18   -12.301584c  -7.04  -5.95c  +1.5,+0.0,-0.0
# iter:  46 09:40:36   -12.301584c  -7.17  -6.00c  +1.5,+0.0,-0.0
# iter:  47 09:40:53   -12.301583c  -7.31  -6.11c  +1.5,+0.0,-0.0
# iter:  48 09:41:11   -12.301582c  -7.46c -6.14c  +1.5,+0.0,-0.0
scf_steps: 48
energies:  # eV
  coulomb:          -7.710914
  zero:              0.066603
  xc:              -14.893691
  external:          0.000000
  kinetic:          10.258374
  spinorbit:         0.000000
  entropy:          -0.043909
  total:           -12.323537
  extrapolated:    -12.301582

dipole moment: [-3.806761, -6.617837, -4.031209]  # |e|*Ang

total magnetic moment: [1.462456, 0.022654, -0.000000]

local magnetic moments: [
  [ 1.123668, -0.000000, -0.000000],  # Ni 0
  [ 0.022126, -0.111381, -0.000000],  # I  1
  [ 0.099092, -0.055462, -0.000000]]  # I  2


Fermi level: -1.669 eV

kpt = [-0.455, -0.455, 0.000], weight = 0.008:
  Band      eig [eV]   occ [0-1]
     0       -65.444       1.000
   ...
    22        -3.521       1.000
    23        -3.462       1.000
    24        -3.279       1.000
    25        -2.781       1.000
    26        -2.660       1.000
    27        -2.581       1.000
    28        -2.293       0.998
    29        -2.084       0.984
    30        -1.332       0.033
    31        -1.192       0.008
    32         1.279       0.000
    33         2.108       0.000
    34         3.346       0.000
    35         3.863       0.000
    36         3.953       0.000
    37         4.478       0.000
   ...
    39         5.302       0.000

kpt = [-0.455, -0.364, 0.000], weight = 0.008:
  Band      eig [eV]   occ [0-1]
     0       -65.444       1.000
   ...
    22        -3.517       1.000
    23        -3.356       1.000
    24        -3.319       1.000
    25        -2.826       1.000
    26        -2.616       1.000
    27        -2.593       1.000
    28        -2.238       0.997
    29        -2.142       0.991
    30        -1.364       0.045
    31        -1.208       0.010
    32         1.348       0.000
    33         2.103       0.000
    34         3.285       0.000
    35         3.873       0.000
    36         4.282       0.000
    37         4.520       0.000
   ...
    39         5.069       0.000

kpt = [-0.455, -0.273, 0.000], weight = 0.008:
  Band      eig [eV]   occ [0-1]
     0       -65.444       1.000
   ...
    22        -3.442       1.000
    23        -3.366       1.000
    24        -3.209       1.000
    25        -2.820       1.000
    26        -2.619       1.000
    27        -2.547       1.000
    28        -2.316       0.998
    29        -2.145       0.992
    30        -1.474       0.126
    31        -1.267       0.018
    32         1.946       0.000
    33         2.140       0.000
    34         3.627       0.000
    35         3.987       0.000
    36         4.080       0.000
    37         4.618       0.000
   ...
    39         4.986       0.000
(only showing first 3 out of 121 k-points)

Gap: 0.209 eV
Transition (v -> c):
  (s=0, k=82, n=29, [0.18, 0.00, 0.00]) -> (s=0, k=2, n=30, [-0.45, -0.27, 0.00])
# Writing to gsq-06.gpw (mode='')

---

timing:  # [seconds]
  Total: 7627.744  # ━━━━━━━━━━━━━━━━━━━━━━━━━━━━━━━━━━━━━━━━━━━━━━━━━━━━━━━━
  Init:    11.224  # 
  SCF:    859.059  # ━━━━━━╸

Max RSS: 1329.387  # MiB
