#  __  _  _
# | _ |_)|_||  |
# |__||  | ||/\| - 24.1.0

User:   s194113@n-62-29-13
Date:   Tue Apr 23 09:12:50 2024
Arch:   x86_64
Pid:    31044
CWD:    /zhome/87/8/147075/10302/10302_NM/NiI2/V_con
Python: 3.8.5
gpaw:   /zhome/87/8/147075/venv-name/gpaw/gpaw (10808453a8)
_gpaw:  /zhome/87/8/147075/venv-name/gpaw/
        _gpaw.cpython-38-x86_64-linux-gnu.so (10808453a8)
ase:    /zhome/87/8/147075/venv-name/ase/ase (version 3.23.0b1-c36115a2db)
numpy:  /zhome/87/8/147075/venv-name/lib/python3.8/site-packages/numpy (version 1.24.4)
scipy:  /zhome/87/8/147075/venv-name/lib/python3.8/site-packages/scipy (version 1.10.1)
libxc:  4.3.4
units:  Angstrom and eV
cores: 12
OpenMP: False
OMP_NUM_THREADS: 1

---
input parameters:
  kpts: 
    density: 6.0
    gamma: True
  magmoms: [[1, 0, 0], [0, 0, 0], [0, 0, 0]]
  mixer: 
    backend: 'pulay'
    beta: 0.05
    method: 'sum'
    nmaxold: 5
    weight: 100
  mode: 
    name: 'pw'
    ecut: 600
    qspiral: array([0.25, 0.  , 0.  ])
  parallel: 
    kpt: None
    domain: 1
    band: 1
    order: 'kdb'
    stridebands: False
    augment_grids: False
    sl_auto: False
    sl_default: None
    sl_diagonalize: None
    sl_inverse_cholesky: None
    sl_lcao: None
    sl_lrtddft: None
    use_elpa: False
    elpasolver: '2stage'
    buffer_size: None
    gpu: False
  symmetry: 
    point_group: False
    time_reversal: False
  xc: 
    name: 'LDA'

#                        
#                        
#                        
#                        
#                        
#              I         
#                        
#        Ni              
#          I             
#                        
#                        
#                        
#                        
#                        

atoms: [  # symbols, positions [Ang] and initial magnetic moments
  [ Ni, [   0.000000,    0.000000,    8.513573], [ 1.000,  0.000,  0.000]], # 0
  [  I, [   1.985000,    1.146040,   10.027147], [ 0.000,  0.000,  0.000]], # 1
  [  I, [  -0.000000,    2.292081,    7.000000], [ 0.000,  0.000,  0.000]]] # 2

cell: [  # Ang
#     x            y            z
  [   3.970000,    0.000000,    0.000000],
  [  -1.985000,    3.438121,    0.000000],
  [   0.000000,   -0.000000,   17.027147]]

periodic: [True      , True      , False     ]
lengths:  [  3.970000,   3.970000,  17.027147]  # Ang
angles:   [ 90.000000,  90.000000, 120.000000]

symmetry:
  number of symmetries: 1
  rotations: [
    [[ 1,  0,  0], [ 0,  1,  0], [ 0,  0,  1]]]

bz sampling:
  number of bz points: 121
  number of ibz points: 121
  monkhorst-pack size: [11, 11, 1]
  monkhorst-pack shift: [0, 0, 0]
  points and weights: [
    [[ -0.45454545,  -0.45454545,   0.00000000], 0.00826446],  # 0
    [[ -0.45454545,  -0.36363636,   0.00000000], 0.00826446],  # 1
    [[ -0.45454545,  -0.27272727,   0.00000000], 0.00826446],  # 2
    [[ -0.45454545,  -0.18181818,   0.00000000], 0.00826446],  # 3
    [[ -0.45454545,  -0.09090909,   0.00000000], 0.00826446],  # 4
    [[ -0.45454545,   0.00000000,   0.00000000], 0.00826446],  # 5
    [[ -0.45454545,   0.09090909,   0.00000000], 0.00826446],  # 6
    [[ -0.45454545,   0.18181818,   0.00000000], 0.00826446],  # 7
    [[ -0.45454545,   0.27272727,   0.00000000], 0.00826446],  # 8
    [[ -0.45454545,   0.36363636,   0.00000000], 0.00826446],  # 9
    # ...
    [[  0.45454545,   0.45454545,   0.00000000], 0.00826446]]  # 120

plane wave coefficients: 7794
cutoff: 600.0 eV

spin-components: 4  # (non-collinear spins)
bands: 40
valence electrons: 30.0
spin-degeneracy: 1
dtype: complex128

memory:
    wave functions: 1_203_417_600  # bytes  (100_284_800 per core)

parallelization:
    kpt:    12
    domain: 1
    band:   1

density:
  components: 4
  grid points: [24 24 98]
  charge: 0.0  # |e|

potential:
  grid points: [24 24 98]

species:
  Ni:
    name: Nickel
    id: 1802175e8de9ea26d9f4394ec1a7d564
    Z: 28.0
    valence: 16
    core: 12
    charge: 0.0
    file: /zhome/86/d/1666/PAW/gpaw-setups-0.9.20000/Ni.LDA.gz
    compensation charges: {type: gauss,
                           rc: 0.36,
                           lmax: 2}
    cutoffs: {filter: 2.14,
              core: 1.98}
    valence states:
      #              energy  rcut
      - 4s(2.00)    -5.858   1.164
      - 3p(6.00)   -71.266   1.207
      - 4p(0.00)    -1.338   1.207
      - 3d(8.00)    -9.141   1.138
      -  s          21.353   1.164
      -  d          18.071   1.138
  
    # Using partial waves for Ni as LCAO basis

  I:
    name: Iodine
    id: b559721c0c096a7b4c8fc0e0f4de5cf4
    Z: 53.0
    valence: 7
    core: 46
    charge: 0.0
    file: /zhome/86/d/1666/PAW/gpaw-setups-0.9.20000/I.LDA.gz
    compensation charges: {type: gauss,
                           rc: 0.37,
                           lmax: 2}
    cutoffs: {filter: 2.06,
              core: 2.90}
    valence states:
      #              energy  rcut
      - 5s(2.00)   -17.626   1.164
      - 5p(5.00)    -7.241   1.164
      -  s           9.585   1.164
      -  p          19.970   1.164
      -  d           0.000   1.164
  
    # Using partial waves for I as LCAO basis

Reference energy: -428067.566327  # eV

eigensolver:
  name: 'Davidson'
  niter: 2
  converge_bands: 'occupied'
Density mixing:
  Method: sum
  Backend: pulay
  Linear mixing parameter: 0.05
  old densities: 5
  Damping of long wavelength oscillations: 100
occupation numbers:
  Fermi-Dirac:
    width: 0.1000  # eV
  

poisson solver:
  ecut: 4800.0  # eV

xc functional:
  name: None

convergence criteria:
- Maximum [total energy] change in last 3 cyles: 0.0005 eV / valence electron
- Maximum integral of absolute [dens]ity change: 0.0001 electrons / valence electron
- Maximum integral of absolute [eigenst]ate change: 4e-08 eV^2 / valence electron
maximum number of iterations: 333

#      iter     time        total  log10-change:
#                          energy   eigst   dens
# iter:   1 09:13:18   -13.760206                  +1.0,+0.0,+0.0
# iter:   2 09:13:36   -12.673281   -0.18  -1.31   +1.0,+0.0,+0.0
# iter:   3 09:13:54   -12.237236   -0.58  -1.45   +1.1,+0.0,-0.0
# iter:   4 09:14:12   -12.309096   -1.22  -1.68   +1.2,+0.0,-0.0
# iter:   5 09:14:30   -12.530331   -1.38  -1.66   +1.3,+0.0,-0.0
# iter:   6 09:14:48   -12.321497   -1.58  -1.77   +1.3,+0.0,-0.0
# iter:   7 09:15:05   -12.307093   -1.86  -2.15   +1.4,+0.0,+0.0
# iter:   8 09:15:23   -12.305648   -2.07  -2.33   +1.4,+0.0,+0.0
# iter:   9 09:15:41   -12.305989c  -2.24  -2.63   +1.5,+0.0,+0.0
# iter:  10 09:15:59   -12.306199c  -2.46  -3.00   +1.5,+0.0,-0.0
# iter:  11 09:16:17   -12.309541c  -2.62  -2.92   +1.5,+0.0,+0.0
# iter:  12 09:16:35   -12.310694c  -2.75  -3.30   +1.5,+0.0,+0.0
# iter:  13 09:16:53   -12.310801c  -2.92  -3.39   +1.5,+0.0,+0.0
# iter:  14 09:17:11   -12.310892c  -3.07  -3.69   +1.5,+0.0,+0.0
# iter:  15 09:17:29   -12.311658c  -3.20  -3.75   +1.5,+0.0,+0.0
# iter:  16 09:17:46   -12.312063c  -3.34  -3.70   +1.5,+0.0,+0.0
# iter:  17 09:18:04   -12.312305c  -3.48  -4.03c  +1.5,+0.0,+0.0
# iter:  18 09:18:22   -12.312330c  -3.63  -4.20c  +1.5,+0.0,+0.0
# iter:  19 09:18:40   -12.312381c  -3.76  -4.30c  +1.5,+0.0,+0.0
# iter:  20 09:18:58   -12.312356c  -3.90  -4.37c  +1.5,+0.0,+0.0
# iter:  21 09:19:15   -12.312361c  -4.03  -4.45c  +1.5,+0.0,+0.0
# iter:  22 09:19:33   -12.312520c  -4.16  -4.51c  +1.6,+0.0,+0.0
# iter:  23 09:19:51   -12.312514c  -4.29  -4.81c  +1.6,+0.0,+0.0
# iter:  24 09:20:09   -12.312513c  -4.43  -4.91c  +1.6,+0.0,+0.0
# iter:  25 09:20:27   -12.312518c  -4.57  -4.97c  +1.6,+0.0,+0.0
# iter:  26 09:20:44   -12.312527c  -4.70  -4.99c  +1.6,+0.0,+0.0
# iter:  27 09:21:02   -12.312531c  -4.83  -5.05c  +1.6,+0.0,+0.0
# iter:  28 09:21:20   -12.312532c  -4.97  -5.11c  +1.6,+0.0,+0.0
# iter:  29 09:21:38   -12.312533c  -5.10  -5.10c  +1.6,+0.0,+0.0
# iter:  30 09:21:56   -12.312533c  -5.24  -5.10c  +1.6,+0.0,+0.0
# iter:  31 09:22:13   -12.312530c  -5.37  -5.11c  +1.6,+0.0,+0.0
# iter:  32 09:22:31   -12.312537c  -5.50  -5.11c  +1.6,+0.0,+0.0
# iter:  33 09:22:49   -12.312535c  -5.63  -5.12c  +1.6,+0.0,+0.0
# iter:  34 09:23:07   -12.312535c  -5.77  -5.10c  +1.6,+0.0,+0.0
# iter:  35 09:23:25   -12.312535c  -5.91  -5.11c  +1.6,+0.0,+0.0
# iter:  36 09:23:42   -12.312536c  -6.04  -5.11c  +1.6,+0.0,+0.0
# iter:  37 09:24:00   -12.312530c  -6.17  -5.14c  +1.6,+0.0,+0.0
# iter:  38 09:24:18   -12.312529c  -6.31  -5.58c  +1.6,+0.0,+0.0
# iter:  39 09:24:36   -12.312529c  -6.44  -5.58c  +1.6,+0.0,+0.0
# iter:  40 09:24:53   -12.312530c  -6.58  -5.59c  +1.6,+0.0,+0.0
# iter:  41 09:25:11   -12.312528c  -6.72  -5.57c  +1.6,+0.0,+0.0
# iter:  42 09:25:29   -12.312527c  -6.86  -5.63c  +1.6,+0.0,+0.0
# iter:  43 09:25:47   -12.312527c  -7.00  -5.66c  +1.6,+0.0,+0.0
# iter:  44 09:26:05   -12.312526c  -7.14  -5.68c  +1.6,+0.0,+0.0
# iter:  45 09:26:23   -12.312525c  -7.28  -5.70c  +1.6,+0.0,+0.0
# iter:  46 09:26:41   -12.312524c  -7.42c -5.78c  +1.6,+0.0,+0.0
scf_steps: 46
energies:  # eV
  coulomb:          -7.665194
  zero:              0.066637
  xc:              -14.896652
  external:          0.000000
  kinetic:          10.202308
  spinorbit:         0.000000
  entropy:          -0.039245
  total:           -12.332146
  extrapolated:    -12.312524

dipole moment: [-3.907336, -6.768524, -4.864720]  # |e|*Ang

total magnetic moment: [1.552359, 0.024183, 0.000000]

local magnetic moments: [
  [ 1.128969, -0.000000,  0.000000],  # Ni 0
  [ 0.059256, -0.118316,  0.000000],  # I  1
  [ 0.118316, -0.059256,  0.000000]]  # I  2


Fermi level: -1.666 eV

kpt = [-0.455, -0.455, 0.000], weight = 0.008:
  Band      eig [eV]   occ [0-1]
     0       -65.446       1.000
   ...
    22        -3.552       1.000
    23        -3.463       1.000
    24        -3.320       1.000
    25        -2.780       1.000
    26        -2.655       1.000
    27        -2.587       1.000
    28        -2.254       0.997
    29        -2.088       0.985
    30        -1.275       0.020
    31        -1.175       0.007
    32         1.174       0.000
    33         2.031       0.000
    34         3.220       0.000
    35         3.922       0.000
    36         3.941       0.000
    37         4.422       0.000
   ...
    39         5.104       0.000

kpt = [-0.455, -0.364, 0.000], weight = 0.008:
  Band      eig [eV]   occ [0-1]
     0       -65.446       1.000
   ...
    22        -3.521       1.000
    23        -3.373       1.000
    24        -3.318       1.000
    25        -2.795       1.000
    26        -2.619       1.000
    27        -2.581       1.000
    28        -2.220       0.996
    29        -2.197       0.995
    30        -1.335       0.035
    31        -1.235       0.013
    32         1.374       0.000
    33         2.107       0.000
    34         3.369       0.000
    35         3.918       0.000
    36         4.282       0.000
    37         4.522       0.000
   ...
    39         5.125       0.000

kpt = [-0.455, -0.273, 0.000], weight = 0.008:
  Band      eig [eV]   occ [0-1]
     0       -65.446       1.000
   ...
    22        -3.451       1.000
    23        -3.387       1.000
    24        -3.212       1.000
    25        -2.789       1.000
    26        -2.624       1.000
    27        -2.541       1.000
    28        -2.337       0.999
    29        -2.184       0.994
    30        -1.472       0.126
    31        -1.274       0.020
    32         1.986       0.000
    33         2.150       0.000
    34         3.657       0.000
    35         4.128       0.000
    36         4.224       0.000
    37         4.626       0.000
   ...
    39         5.050       0.000
(only showing first 3 out of 121 k-points)

Gap: 0.219 eV
Transition (v -> c):
  (s=0, k=49, n=29, [-0.09, 0.00, 0.00]) -> (s=0, k=2, n=30, [-0.45, -0.27, 0.00])
# Writing to gsq-05.gpw (mode='')

---

timing:  # [seconds]
  Total: 831.035  # ━━━━━━━━━━━━━━━━━━━━━━━━━━━━━━━━━━━━━━━━━━━━━━━━━━━━━━━━━
  Init:   11.225  # ━
  SCF:   819.479  # ━━━━━━━━━━━━━━━━━━━━━━━━━━━━━━━━━━━━━━━━━━━━━━━━━━━━━━━━

Max RSS: 710.648  # MiB
