#  __  _  _
# | _ |_)|_||  |
# |__||  | ||/\| - 24.1.0

User:   s194113@n-62-29-13
Date:   Tue Apr 23 11:33:28 2024
Arch:   x86_64
Pid:    31044
CWD:    /zhome/87/8/147075/10302/10302_NM/NiI2/V_con
Python: 3.8.5
gpaw:   /zhome/87/8/147075/venv-name/gpaw/gpaw (10808453a8)
_gpaw:  /zhome/87/8/147075/venv-name/gpaw/
        _gpaw.cpython-38-x86_64-linux-gnu.so (10808453a8)
ase:    /zhome/87/8/147075/venv-name/ase/ase (version 3.23.0b1-c36115a2db)
numpy:  /zhome/87/8/147075/venv-name/lib/python3.8/site-packages/numpy (version 1.24.4)
scipy:  /zhome/87/8/147075/venv-name/lib/python3.8/site-packages/scipy (version 1.10.1)
libxc:  4.3.4
units:  Angstrom and eV
cores: 12
OpenMP: False
OMP_NUM_THREADS: 1

---
input parameters:
  kpts: 
    density: 6.0
    gamma: True
  magmoms: [[1, 0, 0], [0, 0, 0], [0, 0, 0]]
  mixer: 
    backend: 'pulay'
    beta: 0.05
    method: 'sum'
    nmaxold: 5
    weight: 100
  mode: 
    name: 'pw'
    ecut: 600
    qspiral: array([0.38888889, 0.22222222, 0.        ])
  parallel: 
    kpt: None
    domain: 1
    band: 1
    order: 'kdb'
    stridebands: False
    augment_grids: False
    sl_auto: False
    sl_default: None
    sl_diagonalize: None
    sl_inverse_cholesky: None
    sl_lcao: None
    sl_lrtddft: None
    use_elpa: False
    elpasolver: '2stage'
    buffer_size: None
    gpu: False
  symmetry: 
    point_group: False
    time_reversal: False
  xc: 
    name: 'LDA'

#                        
#                        
#                        
#                        
#                        
#              I         
#                        
#        Ni              
#          I             
#                        
#                        
#                        
#                        
#                        

atoms: [  # symbols, positions [Ang] and initial magnetic moments
  [ Ni, [   0.000000,    0.000000,    8.513573], [ 1.000,  0.000,  0.000]], # 0
  [  I, [   1.985000,    1.146040,   10.027147], [ 0.000,  0.000,  0.000]], # 1
  [  I, [  -0.000000,    2.292081,    7.000000], [ 0.000,  0.000,  0.000]]] # 2

cell: [  # Ang
#     x            y            z
  [   3.970000,    0.000000,    0.000000],
  [  -1.985000,    3.438121,    0.000000],
  [   0.000000,   -0.000000,   17.027147]]

periodic: [True      , True      , False     ]
lengths:  [  3.970000,   3.970000,  17.027147]  # Ang
angles:   [ 90.000000,  90.000000, 120.000000]

symmetry:
  number of symmetries: 1
  rotations: [
    [[ 1,  0,  0], [ 0,  1,  0], [ 0,  0,  1]]]

bz sampling:
  number of bz points: 121
  number of ibz points: 121
  monkhorst-pack size: [11, 11, 1]
  monkhorst-pack shift: [0, 0, 0]
  points and weights: [
    [[ -0.45454545,  -0.45454545,   0.00000000], 0.00826446],  # 0
    [[ -0.45454545,  -0.36363636,   0.00000000], 0.00826446],  # 1
    [[ -0.45454545,  -0.27272727,   0.00000000], 0.00826446],  # 2
    [[ -0.45454545,  -0.18181818,   0.00000000], 0.00826446],  # 3
    [[ -0.45454545,  -0.09090909,   0.00000000], 0.00826446],  # 4
    [[ -0.45454545,   0.00000000,   0.00000000], 0.00826446],  # 5
    [[ -0.45454545,   0.09090909,   0.00000000], 0.00826446],  # 6
    [[ -0.45454545,   0.18181818,   0.00000000], 0.00826446],  # 7
    [[ -0.45454545,   0.27272727,   0.00000000], 0.00826446],  # 8
    [[ -0.45454545,   0.36363636,   0.00000000], 0.00826446],  # 9
    # ...
    [[  0.45454545,   0.45454545,   0.00000000], 0.00826446]]  # 120

plane wave coefficients: 7794
cutoff: 600.0 eV

spin-components: 4  # (non-collinear spins)
bands: 40
valence electrons: 30.0
spin-degeneracy: 1
dtype: complex128

memory:
    wave functions: 1_203_417_600  # bytes  (100_284_800 per core)

parallelization:
    kpt:    12
    domain: 1
    band:   1

density:
  components: 4
  grid points: [24 24 98]
  charge: 0.0  # |e|

potential:
  grid points: [24 24 98]

species:
  Ni:
    name: Nickel
    id: 1802175e8de9ea26d9f4394ec1a7d564
    Z: 28.0
    valence: 16
    core: 12
    charge: 0.0
    file: /zhome/86/d/1666/PAW/gpaw-setups-0.9.20000/Ni.LDA.gz
    compensation charges: {type: gauss,
                           rc: 0.36,
                           lmax: 2}
    cutoffs: {filter: 2.14,
              core: 1.98}
    valence states:
      #              energy  rcut
      - 4s(2.00)    -5.858   1.164
      - 3p(6.00)   -71.266   1.207
      - 4p(0.00)    -1.338   1.207
      - 3d(8.00)    -9.141   1.138
      -  s          21.353   1.164
      -  d          18.071   1.138
  
    # Using partial waves for Ni as LCAO basis

  I:
    name: Iodine
    id: b559721c0c096a7b4c8fc0e0f4de5cf4
    Z: 53.0
    valence: 7
    core: 46
    charge: 0.0
    file: /zhome/86/d/1666/PAW/gpaw-setups-0.9.20000/I.LDA.gz
    compensation charges: {type: gauss,
                           rc: 0.37,
                           lmax: 2}
    cutoffs: {filter: 2.06,
              core: 2.90}
    valence states:
      #              energy  rcut
      - 5s(2.00)   -17.626   1.164
      - 5p(5.00)    -7.241   1.164
      -  s           9.585   1.164
      -  p          19.970   1.164
      -  d           0.000   1.164
  
    # Using partial waves for I as LCAO basis

Reference energy: -428067.566327  # eV

eigensolver:
  name: 'Davidson'
  niter: 2
  converge_bands: 'occupied'
Density mixing:
  Method: sum
  Backend: pulay
  Linear mixing parameter: 0.05
  old densities: 5
  Damping of long wavelength oscillations: 100
occupation numbers:
  Fermi-Dirac:
    width: 0.1000  # eV
  

poisson solver:
  ecut: 4800.0  # eV

xc functional:
  name: None

convergence criteria:
- Maximum [total energy] change in last 3 cyles: 0.0005 eV / valence electron
- Maximum integral of absolute [dens]ity change: 0.0001 electrons / valence electron
- Maximum integral of absolute [eigenst]ate change: 4e-08 eV^2 / valence electron
maximum number of iterations: 333

#      iter     time        total  log10-change:
#                          energy   eigst   dens
# iter:   1 11:33:56   -12.862063                  +1.0,+0.0,+0.0
# iter:   2 11:34:14   -12.473629   +0.40  -1.31   +0.8,+0.0,+0.0
# iter:   3 11:34:33   -12.173304   -0.25  -1.45   +0.7,+0.0,+0.0
# iter:   4 11:34:51   -12.213823   -0.78  -1.68   +0.8,+0.0,+0.0
# iter:   5 11:35:09   -12.607627   -0.93  -1.68   +0.9,+0.0,-0.0
# iter:   6 11:35:27   -12.271347   -1.16  -1.67   +0.8,+0.0,-0.0
# iter:   7 11:35:45   -12.276255   -1.40  -2.19   +0.9,+0.0,-0.0
# iter:   8 11:36:03   -12.271379c  -1.56  -2.32   +0.9,+0.0,-0.0
# iter:   9 11:36:21   -12.272733c  -1.72  -2.65   +1.0,+0.0,-0.0
# iter:  10 11:36:39   -12.275667c  -1.86  -2.93   +1.0,+0.0,-0.0
# iter:  11 11:36:56   -12.280961c  -1.99  -2.91   +1.0,+0.0,-0.0
# iter:  12 11:37:14   -12.281711c  -2.14  -3.20   +1.0,+0.0,-0.0
# iter:  13 11:37:32   -12.281958c  -2.26  -3.55   +1.0,+0.0,-0.0
# iter:  14 11:37:50   -12.282319c  -2.39  -3.58   +1.0,+0.0,-0.0
# iter:  15 11:38:08   -12.283307c  -2.52  -3.67   +1.1,+0.0,-0.0
# iter:  16 11:38:26   -12.283630c  -2.63  -3.71   +1.1,+0.0,-0.0
# iter:  17 11:38:44   -12.283785c  -2.76  -3.54   +1.1,+0.0,-0.0
# iter:  18 11:39:02   -12.283929c  -2.89  -3.83   +1.1,+0.0,-0.0
# iter:  19 11:39:20   -12.283989c  -3.00  -3.86   +1.1,+0.0,-0.0
# iter:  20 11:39:38   -12.284017c  -3.13  -3.87   +1.1,+0.0,-0.0
# iter:  21 11:39:56   -12.283987c  -3.25  -3.82   +1.1,+0.0,-0.0
# iter:  22 11:40:13   -12.284047c  -3.37  -3.90   +1.1,+0.0,-0.0
# iter:  23 11:40:31   -12.283986c  -3.49  -3.89   +1.1,+0.0,+0.0
# iter:  24 11:40:49   -12.283955c  -3.61  -3.93   +1.1,+0.0,+0.0
# iter:  25 11:41:07   -12.284012c  -3.72  -3.93   +1.1,+0.0,+0.0
# iter:  26 11:41:25   -12.283929c  -3.84  -3.89   +1.1,+0.0,+0.0
# iter:  27 11:41:43   -12.284158c  -3.97  -3.87   +1.1,+0.0,+0.0
# iter:  28 11:42:01   -12.283975c  -4.09  -3.88   +1.1,+0.0,+0.0
# iter:  29 11:42:19   -12.284103c  -4.21  -3.82   +1.1,+0.0,+0.0
# iter:  30 11:42:37   -12.284273c  -4.33  -3.89   +1.1,+0.0,+0.0
# iter:  31 11:42:54   -12.284628c  -4.44  -3.90   +1.1,+0.0,+0.0
# iter:  32 11:43:12   -12.285450c  -4.47  -3.96   +1.1,+0.0,+0.0
# iter:  33 11:43:31   -12.285519c  -4.67  -4.26c  +1.1,+0.0,+0.0
# iter:  34 11:43:48   -12.285673c  -4.79  -4.38c  +1.1,+0.0,+0.0
# iter:  35 11:44:06   -12.285623c  -4.92  -4.48c  +1.1,+0.0,+0.0
# iter:  36 11:44:24   -12.285637c  -5.05  -4.49c  +1.1,+0.0,+0.0
# iter:  37 11:44:42   -12.285599c  -5.17  -4.48c  +1.1,+0.0,+0.0
# iter:  38 11:45:00   -12.285585c  -5.30  -4.51c  +1.1,+0.0,+0.0
# iter:  39 11:45:18   -12.285589c  -5.42  -4.51c  +1.1,+0.0,+0.0
# iter:  40 11:45:36   -12.285606c  -5.54  -4.53c  +1.1,+0.0,+0.0
# iter:  41 11:45:54   -12.285716c  -5.64  -4.56c  +1.1,+0.0,+0.0
# iter:  42 11:46:12   -12.285765c  -5.77  -4.68c  +1.1,+0.0,-0.0
# iter:  43 11:46:30   -12.285734c  -5.92  -4.79c  +1.1,+0.0,+0.0
# iter:  44 11:46:49   -12.285746c  -6.05  -4.79c  +1.1,+0.0,-0.0
# iter:  45 11:47:07   -12.285767c  -6.17  -4.87c  +1.1,+0.0,-0.0
# iter:  46 11:47:26   -12.285760c  -6.30  -4.92c  +1.1,+0.0,-0.0
# iter:  47 11:47:44   -12.285781c  -6.40  -4.95c  +1.1,+0.0,-0.0
# iter:  48 11:48:02   -12.285799c  -6.53  -5.10c  +1.1,+0.0,-0.0
# iter:  49 11:48:21   -12.285824c  -6.65  -5.35c  +1.1,+0.0,-0.0
# iter:  50 11:48:39   -12.285832c  -6.79  -5.60c  +1.1,+0.0,-0.0
# iter:  51 11:48:57   -12.285834c  -6.91  -5.68c  +1.1,+0.0,-0.0
# iter:  52 11:49:16   -12.285835c  -7.03  -5.68c  +1.1,+0.0,-0.0
# iter:  53 11:49:34   -12.285841c  -7.15  -5.70c  +1.1,+0.0,-0.0
# iter:  54 11:49:52   -12.285851c  -7.26  -5.69c  +1.1,+0.0,-0.0
# iter:  55 11:50:11   -12.285854c  -7.39  -5.70c  +1.1,+0.0,-0.0
# iter:  56 11:50:29   -12.285851c  -7.51c -6.08c  +1.1,+0.0,-0.0
scf_steps: 56
energies:  # eV
  coulomb:          -7.746402
  zero:              0.066730
  xc:              -14.880045
  external:          0.000000
  kinetic:          10.297546
  spinorbit:         0.000000
  entropy:          -0.047359
  total:           -12.309531
  extrapolated:    -12.285851

dipole moment: [-3.371045, -5.992434, -0.759403]  # |e|*Ang

total magnetic moment: [1.092766, 0.002759, -0.000000]

local magnetic moments: [
  [ 1.112977, -0.000000, -0.000000],  # Ni 0
  [-0.031213, -0.000006, -0.000000],  # I  1
  [ 0.023907, -0.020068, -0.000000]]  # I  2


Fermi level: -1.694 eV

kpt = [-0.455, -0.455, 0.000], weight = 0.008:
  Band      eig [eV]   occ [0-1]
     0       -65.437       1.000
   ...
    22        -3.507       1.000
    23        -3.333       1.000
    24        -3.258       1.000
    25        -2.828       1.000
    26        -2.626       1.000
    27        -2.594       1.000
    28        -2.349       0.999
    29        -2.230       0.995
    30        -1.472       0.098
    31        -1.352       0.032
    32         1.946       0.000
    33         2.101       0.000
    34         4.052       0.000
    35         4.155       0.000
    36         4.561       0.000
    37         4.589       0.000
   ...
    39         5.260       0.000

kpt = [-0.455, -0.364, 0.000], weight = 0.008:
  Band      eig [eV]   occ [0-1]
     0       -65.437       1.000
   ...
    22        -3.413       1.000
    23        -3.387       1.000
    24        -3.259       1.000
    25        -2.901       1.000
    26        -2.664       1.000
    27        -2.595       1.000
    28        -2.254       0.996
    29        -2.099       0.983
    30        -1.435       0.070
    31        -1.260       0.013
    32         1.634       0.000
    33         2.176       0.000
    34         3.697       0.000
    35         3.761       0.000
    36         4.181       0.000
    37         4.499       0.000
   ...
    39         5.195       0.000

kpt = [-0.455, -0.273, 0.000], weight = 0.008:
  Band      eig [eV]   occ [0-1]
     0       -65.437       1.000
   ...
    22        -3.472       1.000
    23        -3.346       1.000
    24        -3.212       1.000
    25        -2.905       1.000
    26        -2.684       1.000
    27        -2.564       1.000
    28        -2.192       0.993
    29        -1.946       0.926
    30        -1.454       0.083
    31        -1.152       0.004
    32         1.402       0.000
    33         2.136       0.000
    34         3.299       0.000
    35         3.626       0.000
    36         3.875       0.000
    37         4.269       0.000
   ...
    39         4.887       0.000
(only showing first 3 out of 121 k-points)

Gap: 0.353 eV
Transition (v -> c):
  (s=0, k=27, n=29, [-0.27, 0.00, 0.00]) -> (s=0, k=65, n=30, [0.00, 0.45, 0.00])
# Writing to gsq-14.gpw (mode='')

---

timing:  # [seconds]
  Total: 1535.309  # ━━━━━━━━━━━━━━━━━━━━━━━━━━━━━━━━━━━━━━━━━━━━━━━━━━━━━━━━
  Init:    11.243  # ╸
  SCF:   1009.769  # ━━━━━━━━━━━━━━━━━━━━━━━━━━━━━━━━━━━━━

Max RSS: 1333.121  # MiB
