#  __  _  _
# | _ |_)|_||  |
# |__||  | ||/\| - 24.1.0

User:   s194113@n-62-29-13
Date:   Tue Apr 23 13:45:33 2024
Arch:   x86_64
Pid:    31044
CWD:    /zhome/87/8/147075/10302/10302_NM/NiI2/V_con
Python: 3.8.5
gpaw:   /zhome/87/8/147075/venv-name/gpaw/gpaw (10808453a8)
_gpaw:  /zhome/87/8/147075/venv-name/gpaw/
        _gpaw.cpython-38-x86_64-linux-gnu.so (10808453a8)
ase:    /zhome/87/8/147075/venv-name/ase/ase (version 3.23.0b1-c36115a2db)
numpy:  /zhome/87/8/147075/venv-name/lib/python3.8/site-packages/numpy (version 1.24.4)
scipy:  /zhome/87/8/147075/venv-name/lib/python3.8/site-packages/scipy (version 1.10.1)
libxc:  4.3.4
units:  Angstrom and eV
cores: 12
OpenMP: False
OMP_NUM_THREADS: 1

---
input parameters:
  kpts: 
    density: 6.0
    gamma: True
  magmoms: [[1, 0, 0], [0, 0, 0], [0, 0, 0]]
  mixer: 
    backend: 'pulay'
    beta: 0.05
    method: 'sum'
    nmaxold: 5
    weight: 100
  mode: 
    name: 'pw'
    ecut: 600
    qspiral: array([0.19047619, 0.19047619, 0.        ])
  parallel: 
    kpt: None
    domain: 1
    band: 1
    order: 'kdb'
    stridebands: False
    augment_grids: False
    sl_auto: False
    sl_default: None
    sl_diagonalize: None
    sl_inverse_cholesky: None
    sl_lcao: None
    sl_lrtddft: None
    use_elpa: False
    elpasolver: '2stage'
    buffer_size: None
    gpu: False
  symmetry: 
    point_group: False
    time_reversal: False
  xc: 
    name: 'LDA'

#                        
#                        
#                        
#                        
#                        
#              I         
#                        
#        Ni              
#          I             
#                        
#                        
#                        
#                        
#                        

atoms: [  # symbols, positions [Ang] and initial magnetic moments
  [ Ni, [   0.000000,    0.000000,    8.513573], [ 1.000,  0.000,  0.000]], # 0
  [  I, [   1.985000,    1.146040,   10.027147], [ 0.000,  0.000,  0.000]], # 1
  [  I, [  -0.000000,    2.292081,    7.000000], [ 0.000,  0.000,  0.000]]] # 2

cell: [  # Ang
#     x            y            z
  [   3.970000,    0.000000,    0.000000],
  [  -1.985000,    3.438121,    0.000000],
  [   0.000000,   -0.000000,   17.027147]]

periodic: [True      , True      , False     ]
lengths:  [  3.970000,   3.970000,  17.027147]  # Ang
angles:   [ 90.000000,  90.000000, 120.000000]

symmetry:
  number of symmetries: 1
  rotations: [
    [[ 1,  0,  0], [ 0,  1,  0], [ 0,  0,  1]]]

bz sampling:
  number of bz points: 121
  number of ibz points: 121
  monkhorst-pack size: [11, 11, 1]
  monkhorst-pack shift: [0, 0, 0]
  points and weights: [
    [[ -0.45454545,  -0.45454545,   0.00000000], 0.00826446],  # 0
    [[ -0.45454545,  -0.36363636,   0.00000000], 0.00826446],  # 1
    [[ -0.45454545,  -0.27272727,   0.00000000], 0.00826446],  # 2
    [[ -0.45454545,  -0.18181818,   0.00000000], 0.00826446],  # 3
    [[ -0.45454545,  -0.09090909,   0.00000000], 0.00826446],  # 4
    [[ -0.45454545,   0.00000000,   0.00000000], 0.00826446],  # 5
    [[ -0.45454545,   0.09090909,   0.00000000], 0.00826446],  # 6
    [[ -0.45454545,   0.18181818,   0.00000000], 0.00826446],  # 7
    [[ -0.45454545,   0.27272727,   0.00000000], 0.00826446],  # 8
    [[ -0.45454545,   0.36363636,   0.00000000], 0.00826446],  # 9
    # ...
    [[  0.45454545,   0.45454545,   0.00000000], 0.00826446]]  # 120

plane wave coefficients: 7794
cutoff: 600.0 eV

spin-components: 4  # (non-collinear spins)
bands: 40
valence electrons: 30.0
spin-degeneracy: 1
dtype: complex128

memory:
    wave functions: 1_203_417_600  # bytes  (100_284_800 per core)

parallelization:
    kpt:    12
    domain: 1
    band:   1

density:
  components: 4
  grid points: [24 24 98]
  charge: 0.0  # |e|

potential:
  grid points: [24 24 98]

species:
  Ni:
    name: Nickel
    id: 1802175e8de9ea26d9f4394ec1a7d564
    Z: 28.0
    valence: 16
    core: 12
    charge: 0.0
    file: /zhome/86/d/1666/PAW/gpaw-setups-0.9.20000/Ni.LDA.gz
    compensation charges: {type: gauss,
                           rc: 0.36,
                           lmax: 2}
    cutoffs: {filter: 2.14,
              core: 1.98}
    valence states:
      #              energy  rcut
      - 4s(2.00)    -5.858   1.164
      - 3p(6.00)   -71.266   1.207
      - 4p(0.00)    -1.338   1.207
      - 3d(8.00)    -9.141   1.138
      -  s          21.353   1.164
      -  d          18.071   1.138
  
    # Using partial waves for Ni as LCAO basis

  I:
    name: Iodine
    id: b559721c0c096a7b4c8fc0e0f4de5cf4
    Z: 53.0
    valence: 7
    core: 46
    charge: 0.0
    file: /zhome/86/d/1666/PAW/gpaw-setups-0.9.20000/I.LDA.gz
    compensation charges: {type: gauss,
                           rc: 0.37,
                           lmax: 2}
    cutoffs: {filter: 2.06,
              core: 2.90}
    valence states:
      #              energy  rcut
      - 5s(2.00)   -17.626   1.164
      - 5p(5.00)    -7.241   1.164
      -  s           9.585   1.164
      -  p          19.970   1.164
      -  d           0.000   1.164
  
    # Using partial waves for I as LCAO basis

Reference energy: -428067.566327  # eV

eigensolver:
  name: 'Davidson'
  niter: 2
  converge_bands: 'occupied'
Density mixing:
  Method: sum
  Backend: pulay
  Linear mixing parameter: 0.05
  old densities: 5
  Damping of long wavelength oscillations: 100
occupation numbers:
  Fermi-Dirac:
    width: 0.1000  # eV
  

poisson solver:
  ecut: 4800.0  # eV

xc functional:
  name: None

convergence criteria:
- Maximum [total energy] change in last 3 cyles: 0.0005 eV / valence electron
- Maximum integral of absolute [dens]ity change: 0.0001 electrons / valence electron
- Maximum integral of absolute [eigenst]ate change: 4e-08 eV^2 / valence electron
maximum number of iterations: 333

#      iter     time        total  log10-change:
#                          energy   eigst   dens
# iter:   1 13:46:02   -13.584884                  +1.0,+0.0,+0.0
# iter:   2 13:46:20   -12.635488   +0.00  -1.31   +0.9,+0.0,-0.0
# iter:   3 13:46:37   -12.225720   -0.49  -1.45   +1.0,+0.0,-0.0
# iter:   4 13:46:56   -12.292044   -1.11  -1.68   +1.1,+0.0,-0.0
# iter:   5 13:47:13   -12.577967   -1.24  -1.66   +1.2,+0.0,-0.0
# iter:   6 13:47:31   -12.315423   -1.46  -1.72   +1.2,+0.0,-0.0
# iter:   7 13:47:49   -12.301974   -1.73  -2.14   +1.2,+0.0,-0.0
# iter:   8 13:48:07   -12.299561   -1.93  -2.33   +1.3,+0.0,-0.0
# iter:   9 13:48:25   -12.300212c  -2.09  -2.62   +1.3,+0.0,-0.0
# iter:  10 13:48:43   -12.300702c  -2.28  -3.00   +1.3,+0.0,-0.0
# iter:  11 13:49:01   -12.304506c  -2.43  -2.89   +1.4,+0.0,-0.0
# iter:  12 13:49:19   -12.305620c  -2.57  -3.36   +1.4,+0.0,+0.0
# iter:  13 13:49:36   -12.305693c  -2.71  -3.62   +1.4,+0.0,+0.0
# iter:  14 13:49:54   -12.305719c  -2.84  -3.70   +1.4,+0.0,+0.0
# iter:  15 13:50:12   -12.306240c  -2.97  -3.70   +1.4,+0.0,+0.0
# iter:  16 13:50:30   -12.306489c  -3.10  -3.75   +1.4,+0.0,+0.0
# iter:  17 13:50:48   -12.306478c  -3.23  -3.75   +1.4,+0.0,+0.0
# iter:  18 13:51:06   -12.306596c  -3.36  -3.72   +1.4,+0.0,+0.0
# iter:  19 13:51:23   -12.306314c  -3.49  -3.76   +1.4,+0.0,+0.0
# iter:  20 13:51:41   -12.306424c  -3.62  -3.76   +1.4,+0.0,+0.0
# iter:  21 13:51:59   -12.306505c  -3.74  -3.76   +1.4,+0.0,+0.0
# iter:  22 13:52:17   -12.307051c  -3.86  -3.78   +1.4,+0.0,+0.0
# iter:  23 13:52:35   -12.307130c  -3.99  -3.99   +1.4,+0.0,+0.0
# iter:  24 13:52:53   -12.307180c  -4.12  -4.02c  +1.4,+0.0,-0.0
# iter:  25 13:53:11   -12.307086c  -4.26  -4.06c  +1.4,+0.0,+0.0
# iter:  26 13:53:28   -12.307141c  -4.38  -4.07c  +1.4,+0.0,+0.0
# iter:  27 13:53:46   -12.307374c  -4.50  -4.15c  +1.4,+0.0,+0.0
# iter:  28 13:54:04   -12.307411c  -4.64  -4.15c  +1.4,+0.0,+0.0
# iter:  29 13:54:22   -12.307459c  -4.77  -4.25c  +1.4,+0.0,+0.0
# iter:  30 13:54:40   -12.307570c  -4.90  -4.30c  +1.4,+0.0,+0.0
# iter:  31 13:54:58   -12.307608c  -5.03  -4.31c  +1.4,+0.0,+0.0
# iter:  32 13:55:16   -12.307573c  -5.16  -4.35c  +1.4,+0.0,+0.0
# iter:  33 13:55:33   -12.307548c  -5.29  -4.46c  +1.4,+0.0,+0.0
# iter:  34 13:55:51   -12.307531c  -5.42  -4.49c  +1.4,+0.0,+0.0
# iter:  35 13:56:09   -12.307554c  -5.55  -4.58c  +1.4,+0.0,+0.0
# iter:  36 13:56:27   -12.307564c  -5.67  -4.63c  +1.4,+0.0,+0.0
# iter:  37 13:56:45   -12.307569c  -5.80  -4.66c  +1.4,+0.0,+0.0
# iter:  38 13:57:03   -12.307621c  -5.90  -4.69c  +1.4,+0.0,+0.0
# iter:  39 13:57:20   -12.307624c  -6.06  -4.90c  +1.4,+0.0,+0.0
# iter:  40 13:57:38   -12.307660c  -6.18  -4.95c  +1.4,+0.0,+0.0
# iter:  41 13:57:56   -12.307662c  -6.31  -5.14c  +1.4,+0.0,+0.0
# iter:  42 13:58:14   -12.307673c  -6.45  -5.34c  +1.4,+0.0,+0.0
# iter:  43 13:58:32   -12.307675c  -6.59  -5.50c  +1.4,+0.0,+0.0
# iter:  44 13:58:49   -12.307682c  -6.72  -5.63c  +1.4,+0.0,+0.0
# iter:  45 13:59:07   -12.307682c  -6.85  -5.74c  +1.4,+0.0,+0.0
# iter:  46 13:59:25   -12.307687c  -6.99  -5.77c  +1.4,+0.0,+0.0
# iter:  47 13:59:43   -12.307685c  -7.12  -5.87c  +1.4,+0.0,+0.0
# iter:  48 14:00:01   -12.307686c  -7.25  -5.91c  +1.4,+0.0,+0.0
# iter:  49 14:00:18   -12.307686c  -7.39  -6.07c  +1.4,+0.0,+0.0
# iter:  50 14:00:36   -12.307686c  -7.53c -6.15c  +1.4,+0.0,+0.0
scf_steps: 50
energies:  # eV
  coulomb:          -7.651129
  zero:              0.066770
  xc:              -14.885424
  external:          0.000000
  kinetic:          10.181472
  spinorbit:         0.000000
  entropy:          -0.038750
  total:           -12.327061
  extrapolated:    -12.307686

dipole moment: [-3.768402, -6.526254, -3.717029]  # |e|*Ang

total magnetic moment: [1.415411, 0.025653, 0.000000]

local magnetic moments: [
  [ 1.123875,  0.000000,  0.000000],  # Ni 0
  [ 0.037075, -0.094381,  0.000000],  # I  1
  [ 0.037018, -0.094403,  0.000000]]  # I  2


Fermi level: -1.681 eV

kpt = [-0.455, -0.455, 0.000], weight = 0.008:
  Band      eig [eV]   occ [0-1]
     0       -65.443       1.000
   ...
    22        -3.541       1.000
    23        -3.390       1.000
    24        -3.318       1.000
    25        -2.802       1.000
    26        -2.638       1.000
    27        -2.602       1.000
    28        -2.260       0.997
    29        -2.176       0.993
    30        -1.341       0.032
    31        -1.276       0.017
    32         1.368       0.000
    33         2.091       0.000
    34         3.603       0.000
    35         4.238       0.000
    36         4.276       0.000
    37         4.289       0.000
   ...
    39         4.934       0.000

kpt = [-0.455, -0.364, 0.000], weight = 0.008:
  Band      eig [eV]   occ [0-1]
     0       -65.443       1.000
   ...
    22        -3.516       1.000
    23        -3.404       1.000
    24        -3.367       1.000
    25        -2.901       1.000
    26        -2.648       1.000
    27        -2.635       1.000
    28        -2.214       0.995
    29        -2.062       0.978
    30        -1.327       0.028
    31        -1.178       0.007
    32         1.106       0.000
    33         2.077       0.000
    34         3.143       0.000
    35         3.946       0.000
    36         4.258       0.000
    37         4.329       0.000
   ...
    39         5.542       0.000

kpt = [-0.455, -0.273, 0.000], weight = 0.008:
  Band      eig [eV]   occ [0-1]
     0       -65.443       1.000
   ...
    22        -3.436       1.000
    23        -3.415       1.000
    24        -3.292       1.000
    25        -2.921       1.000
    26        -2.657       1.000
    27        -2.624       1.000
    28        -2.184       0.994
    29        -2.007       0.963
    30        -1.379       0.047
    31        -1.194       0.008
    32         1.421       0.000
    33         1.859       0.000
    34         3.499       0.000
    35         3.997       0.000
    36         4.006       0.000
    37         4.503       0.000
   ...
    39         4.772       0.000
(only showing first 3 out of 121 k-points)

Gap: 0.387 eV
Transition (v -> c):
  (s=0, k=38, n=29, [-0.18, 0.00, 0.00]) -> (s=0, k=30, n=30, [-0.27, 0.27, 0.00])
# Writing to gsq-22.gpw (mode='')

