#  __  _  _
# | _ |_)|_||  |
# |__||  | ||/\| - 24.1.0

User:   s194113@n-62-29-10
Date:   Tue May  7 08:31:27 2024
Arch:   x86_64
Pid:    14705
CWD:    /work3/s194113/10302/10302_NM/NiI2
Python: 3.8.5
gpaw:   /zhome/87/8/147075/venv-name/gpaw/gpaw (10808453a8)
_gpaw:  /zhome/87/8/147075/venv-name/gpaw/
        _gpaw.cpython-38-x86_64-linux-gnu.so (10808453a8)
ase:    /zhome/87/8/147075/venv-name/ase/ase (version 3.23.0b1-c36115a2db)
numpy:  /zhome/87/8/147075/venv-name/lib/python3.8/site-packages/numpy (version 1.24.4)
scipy:  /zhome/87/8/147075/venv-name/lib/python3.8/site-packages/scipy (version 1.10.1)
libxc:  4.3.4
units:  Angstrom and eV
cores: 18
OpenMP: False
OMP_NUM_THREADS: 1

---
input parameters:
  kpts: 
    density: 8.0
    gamma: True
  magmoms: [[1.28782608, 0, 0], [0.19870794, 0, 0], [0.19870794, 0, 0]]
  mixer: 
    backend: 'pulay'
    beta: 0.05
    method: 'sum'
    nmaxold: 5
    weight: 100
  mode: 
    name: 'pw'
    ecut: 800.0
    qspiral: array([0.15503876, 0.15503876, 0.        ])
  parallel: 
    kpt: None
    domain: 1
    band: 1
    order: 'kdb'
    stridebands: False
    augment_grids: False
    sl_auto: False
    sl_default: None
    sl_diagonalize: None
    sl_inverse_cholesky: None
    sl_lcao: None
    sl_lrtddft: None
    use_elpa: False
    elpasolver: '2stage'
    buffer_size: None
    gpu: False
  symmetry: 
    point_group: False
    time_reversal: False
  xc: 
    name: 'LDA'

#                        
#                        
#                        
#                        
#                        
#              I         
#                        
#        Ni              
#          I             
#                        
#                        
#                        
#                        
#                        

atoms: [  # symbols, positions [Ang] and initial magnetic moments
  [ Ni, [   0.000000,    0.000000,    7.513573], [ 1.288,  0.000,  0.000]], # 0
  [  I, [   1.984831,    1.145943,    9.027147], [ 0.199,  0.000,  0.000]], # 1
  [  I, [   0.000000,    2.291885,    6.000000], [ 0.199,  0.000,  0.000]]] # 2

cell: [  # Ang
#     x            y            z
  [   3.969662,    0.000000,    0.000000],
  [  -1.984831,    3.437828,    0.000000],
  [   0.000000,    0.000000,   15.027147]]

periodic: [True      , True      , False     ]
lengths:  [  3.969662,   3.969662,  15.027147]  # Ang
angles:   [ 90.000000,  90.000000, 120.000000]

symmetry:
  number of symmetries: 1
  rotations: [
    [[ 1,  0,  0], [ 0,  1,  0], [ 0,  0,  1]]]

bz sampling:
  number of bz points: 225
  number of ibz points: 225
  monkhorst-pack size: [15, 15, 1]
  monkhorst-pack shift: [0, 0, 0]
  points and weights: [
    [[ -0.46666667,  -0.46666667,   0.00000000], 0.00444444],  # 0
    [[ -0.46666667,  -0.40000000,   0.00000000], 0.00444444],  # 1
    [[ -0.46666667,  -0.33333333,   0.00000000], 0.00444444],  # 2
    [[ -0.46666667,  -0.26666667,   0.00000000], 0.00444444],  # 3
    [[ -0.46666667,  -0.20000000,   0.00000000], 0.00444444],  # 4
    [[ -0.46666667,  -0.13333333,   0.00000000], 0.00444444],  # 5
    [[ -0.46666667,  -0.06666667,   0.00000000], 0.00444444],  # 6
    [[ -0.46666667,   0.00000000,   0.00000000], 0.00444444],  # 7
    [[ -0.46666667,   0.06666667,   0.00000000], 0.00444444],  # 8
    [[ -0.46666667,   0.13333333,   0.00000000], 0.00444444],  # 9
    # ...
    [[  0.46666667,   0.46666667,   0.00000000], 0.00444444]]  # 224

plane wave coefficients: 10580
cutoff: 800.0 eV

spin-components: 4  # (non-collinear spins)
bands: 40
valence electrons: 30.0
spin-degeneracy: 1
dtype: complex128

memory:
    wave functions: 3_041_856_000  # bytes  (168_992_000 per core)

parallelization:
    kpt:    18
    domain: 1
    band:   1

density:
  components: 4
  grid points: [ 27  27 100]
  charge: 0.0  # |e|

potential:
  grid points: [ 27  27 100]

species:
  Ni:
    name: Nickel
    id: 1802175e8de9ea26d9f4394ec1a7d564
    Z: 28.0
    valence: 16
    core: 12
    charge: 0.0
    file: /zhome/86/d/1666/PAW/gpaw-setups-0.9.20000/Ni.LDA.gz
    compensation charges: {type: gauss,
                           rc: 0.36,
                           lmax: 2}
    cutoffs: {filter: 2.14,
              core: 1.98}
    valence states:
      #              energy  rcut
      - 4s(2.00)    -5.858   1.164
      - 3p(6.00)   -71.266   1.207
      - 4p(0.00)    -1.338   1.207
      - 3d(8.00)    -9.141   1.138
      -  s          21.353   1.164
      -  d          18.071   1.138
  
    # Using partial waves for Ni as LCAO basis

  I:
    name: Iodine
    id: b559721c0c096a7b4c8fc0e0f4de5cf4
    Z: 53.0
    valence: 7
    core: 46
    charge: 0.0
    file: /zhome/86/d/1666/PAW/gpaw-setups-0.9.20000/I.LDA.gz
    compensation charges: {type: gauss,
                           rc: 0.37,
                           lmax: 2}
    cutoffs: {filter: 2.06,
              core: 2.90}
    valence states:
      #              energy  rcut
      - 5s(2.00)   -17.626   1.164
      - 5p(5.00)    -7.241   1.164
      -  s           9.585   1.164
      -  p          19.970   1.164
      -  d           0.000   1.164
  
    # Using partial waves for I as LCAO basis

Reference energy: -428067.566327  # eV

eigensolver:
  name: 'Davidson'
  niter: 2
  converge_bands: 'occupied'
Density mixing:
  Method: sum
  Backend: pulay
  Linear mixing parameter: 0.05
  old densities: 5
  Damping of long wavelength oscillations: 100
occupation numbers:
  Fermi-Dirac:
    width: 0.1000  # eV
  

poisson solver:
  ecut: 6400.0  # eV

xc functional:
  name: None

convergence criteria:
- Maximum [total energy] change in last 3 cyles: 0.0005 eV / valence electron
- Maximum integral of absolute [dens]ity change: 0.0001 electrons / valence electron
- Maximum integral of absolute [eigenst]ate change: 4e-08 eV^2 / valence electron
maximum number of iterations: 333

#      iter     time        total  log10-change:
#                          energy   eigst   dens
# iter:   1 08:32:15   -13.615834                  +1.7,+0.0,+0.0
# iter:   2 08:32:46   -12.640862   -0.12  -1.31   +1.4,-0.0,-0.0
# iter:   3 08:33:17   -12.248955   -0.58  -1.46   +1.4,-0.0,+0.0
# iter:   4 08:33:48   -12.327433   -1.24  -1.68   +1.4,-0.0,-0.0
# iter:   5 08:34:19   -12.497192   -1.43  -1.66   +1.4,+0.0,-0.0
# iter:   6 08:34:50   -12.335420   -1.65  -1.82   +1.5,+0.0,-0.0
# iter:   7 08:35:21   -12.324092   -1.94  -2.19   +1.5,+0.0,+0.0
# iter:   8 08:35:51   -12.314472   -2.12  -2.34   +1.5,+0.0,+0.0
# iter:   9 08:36:23   -12.315896c  -2.32  -2.78   +1.5,+0.0,+0.0
# iter:  10 08:36:54   -12.317053c  -2.53  -3.00   +1.5,+0.0,+0.0
# iter:  11 08:37:25   -12.315803c  -2.65  -2.92   +1.5,+0.0,+0.0
# iter:  12 08:37:56   -12.316143c  -2.87  -3.15   +1.5,+0.0,+0.0
# iter:  13 08:38:27   -12.316295c  -3.02  -3.70   +1.5,+0.0,+0.0
# iter:  14 08:38:58   -12.316336c  -3.17  -3.91   +1.5,+0.0,+0.0
# iter:  15 08:39:29   -12.316576c  -3.31  -3.94   +1.5,+0.0,+0.0
# iter:  16 08:40:00   -12.316708c  -3.44  -4.15c  +1.5,+0.0,-0.0
# iter:  17 08:40:31   -12.316845c  -3.59  -4.23c  +1.5,+0.0,+0.0
# iter:  18 08:41:02   -12.316760c  -3.73  -4.01c  +1.5,+0.0,+0.0
# iter:  19 08:41:33   -12.316833c  -3.86  -4.21c  +1.5,+0.0,+0.0
# iter:  20 08:42:04   -12.316881c  -4.00  -4.31c  +1.5,+0.0,+0.0
# iter:  21 08:42:35   -12.316877c  -4.14  -4.37c  +1.5,+0.0,+0.0
# iter:  22 08:43:06   -12.316900c  -4.28  -4.41c  +1.5,+0.0,+0.0
# iter:  23 08:43:38   -12.316951c  -4.42  -4.46c  +1.5,+0.0,+0.0
# iter:  24 08:44:09   -12.316955c  -4.55  -4.83c  +1.5,+0.0,+0.0
# iter:  25 08:44:40   -12.317005c  -4.69  -4.89c  +1.5,+0.0,+0.0
# iter:  26 08:45:11   -12.317002c  -4.82  -5.03c  +1.5,+0.0,+0.0
# iter:  27 08:45:42   -12.317003c  -4.96  -5.09c  +1.5,+0.0,+0.0
# iter:  28 08:46:13   -12.316990c  -5.09  -5.18c  +1.5,+0.0,+0.0
# iter:  29 08:46:44   -12.316983c  -5.23  -5.27c  +1.5,+0.0,+0.0
# iter:  30 08:47:16   -12.316984c  -5.35  -5.32c  +1.5,+0.0,+0.0
# iter:  31 08:47:48   -12.316979c  -5.49  -5.37c  +1.5,+0.0,+0.0
# iter:  32 08:48:19   -12.316975c  -5.62  -5.52c  +1.5,+0.0,+0.0
# iter:  33 08:48:51   -12.316975c  -5.75  -5.51c  +1.5,+0.0,+0.0
# iter:  34 08:49:22   -12.316977c  -5.89  -5.53c  +1.5,+0.0,+0.0
# iter:  35 08:49:54   -12.316971c  -6.03  -5.46c  +1.5,+0.0,+0.0
# iter:  36 08:50:25   -12.316970c  -6.16  -5.56c  +1.5,+0.0,+0.0
# iter:  37 08:50:57   -12.316968c  -6.29  -5.56c  +1.5,+0.0,+0.0
# iter:  38 08:51:29   -12.316969c  -6.43  -5.70c  +1.5,+0.0,+0.0
# iter:  39 08:52:01   -12.316967c  -6.57  -5.68c  +1.5,+0.0,+0.0
# iter:  40 08:52:33   -12.316968c  -6.70  -5.73c  +1.5,+0.0,+0.0
# iter:  41 08:53:05   -12.316968c  -6.84  -5.79c  +1.5,+0.0,+0.0
# iter:  42 08:53:36   -12.316970c  -6.97  -5.83c  +1.5,+0.0,+0.0
# iter:  43 08:54:08   -12.316973c  -7.11  -5.94c  +1.5,+0.0,+0.0
# iter:  44 08:54:39   -12.316973c  -7.24  -6.19c  +1.5,+0.0,+0.0
# iter:  45 08:55:11   -12.316973c  -7.38  -6.25c  +1.5,+0.0,+0.0
# iter:  46 08:55:42   -12.316973c  -7.51c -6.30c  +1.5,+0.0,+0.0
scf_steps: 46
energies:  # eV
  coulomb:          -7.640533
  zero:              0.067667
  xc:              -14.895844
  external:          0.000000
  kinetic:          10.169882
  spinorbit:         0.000000
  entropy:          -0.036288
  total:           -12.335117
  extrapolated:    -12.316973

dipole moment: [-3.950086, -6.841004, -4.104982]  # |e|*Ang

total magnetic moment: [1.526092, 0.018294, 0.000000]

local magnetic moments: [
  [ 1.129355, -0.007444,  0.000000],  # Ni 0
  [ 0.070034, -0.104543,  0.000000],  # I  1
  [ 0.069997, -0.104567,  0.000000]]  # I  2


Fermi level: -1.185 eV

kpt = [-0.467, -0.467, 0.000], weight = 0.004:
  Band      eig [eV]   occ [0-1]
     0       -64.954       1.000
   ...
    22        -3.067       1.000
    23        -2.931       1.000
    24        -2.837       1.000
    25        -2.285       1.000
    26        -2.146       1.000
    27        -2.110       1.000
    28        -1.761       0.997
    29        -1.649       0.991
    30        -0.817       0.025
    31        -0.737       0.011
    32         1.802       0.000
    33         2.483       0.000
    34         4.005       0.000
    35         4.696       0.000
    36         4.735       0.000
    37         4.787       0.000
   ...
    39         5.514       0.000

kpt = [-0.467, -0.400, 0.000], weight = 0.004:
  Band      eig [eV]   occ [0-1]
     0       -64.954       1.000
   ...
    22        -3.063       1.000
    23        -2.914       1.000
    24        -2.894       1.000
    25        -2.329       1.000
    26        -2.146       1.000
    27        -2.127       1.000
    28        -1.731       0.996
    29        -1.643       0.990
    30        -0.777       0.017
    31        -0.713       0.009
    32         1.597       0.000
    33         2.596       0.000
    34         3.649       0.000
    35         4.479       0.000
    36         4.656       0.000
    37         4.764       0.000
   ...
    39         5.990       0.000

kpt = [-0.467, -0.333, 0.000], weight = 0.004:
  Band      eig [eV]   occ [0-1]
     0       -64.954       1.000
   ...
    22        -3.016       1.000
    23        -2.928       1.000
    24        -2.836       1.000
    25        -2.372       1.000
    26        -2.146       1.000
    27        -2.132       1.000
    28        -1.745       0.996
    29        -1.575       0.980
    30        -0.842       0.032
    31        -0.698       0.008
    32         1.704       0.000
    33         2.559       0.000
    34         3.759       0.000
    35         4.430       0.000
    36         4.703       0.000
    37         4.930       0.000
   ...
    39         5.824       0.000
(only showing first 3 out of 225 k-points)

Gap: 0.333 eV
Transition (v -> c):
  (s=0, k=112, n=29, [0.00, 0.00, 0.00]) -> (s=0, k=48, n=30, [-0.27, -0.27, 0.00])
# Writing to Band_Conv/gsq-80.gpw (mode='')

---

timing:  # [seconds]
  Total: 3994.997  # ━━━━━━━━━━━━━━━━━━━━━━━━━━━━━━━━━━━━━━━━━━━━━━━━━━━━━━━━
  Init:    18.161  # ╸
  SCF:   1436.682  # ━━━━━━━━━━━━━━━━━━━━

Max RSS: 3806.562  # MiB
