#  __  _  _
# | _ |_)|_||  |
# |__||  | ||/\| - 24.1.0

User:   s194113@n-62-29-10
Date:   Mon May  6 10:23:06 2024
Arch:   x86_64
Pid:    14705
CWD:    /work3/s194113/10302/10302_NM/NiI2
Python: 3.8.5
gpaw:   /zhome/87/8/147075/venv-name/gpaw/gpaw (10808453a8)
_gpaw:  /zhome/87/8/147075/venv-name/gpaw/
        _gpaw.cpython-38-x86_64-linux-gnu.so (10808453a8)
ase:    /zhome/87/8/147075/venv-name/ase/ase (version 3.23.0b1-c36115a2db)
numpy:  /zhome/87/8/147075/venv-name/lib/python3.8/site-packages/numpy (version 1.24.4)
scipy:  /zhome/87/8/147075/venv-name/lib/python3.8/site-packages/scipy (version 1.10.1)
libxc:  4.3.4
units:  Angstrom and eV
cores: 18
OpenMP: False
OMP_NUM_THREADS: 1

---
input parameters:
  kpts: 
    density: 8.0
    gamma: True
  magmoms: [[1.28782608, 0, 0], [0.19870794, 0, 0], [0.19870794, 0, 0]]
  mixer: 
    backend: 'pulay'
    beta: 0.05
    method: 'sum'
    nmaxold: 5
    weight: 100
  mode: 
    name: 'pw'
    ecut: 800.0
    qspiral: array([0.40277778, 0.        , 0.        ])
  parallel: 
    kpt: None
    domain: 1
    band: 1
    order: 'kdb'
    stridebands: False
    augment_grids: False
    sl_auto: False
    sl_default: None
    sl_diagonalize: None
    sl_inverse_cholesky: None
    sl_lcao: None
    sl_lrtddft: None
    use_elpa: False
    elpasolver: '2stage'
    buffer_size: None
    gpu: False
  symmetry: 
    point_group: False
    time_reversal: False
  xc: 
    name: 'LDA'

#                        
#                        
#                        
#                        
#                        
#              I         
#                        
#        Ni              
#          I             
#                        
#                        
#                        
#                        
#                        

atoms: [  # symbols, positions [Ang] and initial magnetic moments
  [ Ni, [   0.000000,    0.000000,    7.513573], [ 1.288,  0.000,  0.000]], # 0
  [  I, [   1.984831,    1.145943,    9.027147], [ 0.199,  0.000,  0.000]], # 1
  [  I, [   0.000000,    2.291885,    6.000000], [ 0.199,  0.000,  0.000]]] # 2

cell: [  # Ang
#     x            y            z
  [   3.969662,    0.000000,    0.000000],
  [  -1.984831,    3.437828,    0.000000],
  [   0.000000,    0.000000,   15.027147]]

periodic: [True      , True      , False     ]
lengths:  [  3.969662,   3.969662,  15.027147]  # Ang
angles:   [ 90.000000,  90.000000, 120.000000]

symmetry:
  number of symmetries: 1
  rotations: [
    [[ 1,  0,  0], [ 0,  1,  0], [ 0,  0,  1]]]

bz sampling:
  number of bz points: 225
  number of ibz points: 225
  monkhorst-pack size: [15, 15, 1]
  monkhorst-pack shift: [0, 0, 0]
  points and weights: [
    [[ -0.46666667,  -0.46666667,   0.00000000], 0.00444444],  # 0
    [[ -0.46666667,  -0.40000000,   0.00000000], 0.00444444],  # 1
    [[ -0.46666667,  -0.33333333,   0.00000000], 0.00444444],  # 2
    [[ -0.46666667,  -0.26666667,   0.00000000], 0.00444444],  # 3
    [[ -0.46666667,  -0.20000000,   0.00000000], 0.00444444],  # 4
    [[ -0.46666667,  -0.13333333,   0.00000000], 0.00444444],  # 5
    [[ -0.46666667,  -0.06666667,   0.00000000], 0.00444444],  # 6
    [[ -0.46666667,   0.00000000,   0.00000000], 0.00444444],  # 7
    [[ -0.46666667,   0.06666667,   0.00000000], 0.00444444],  # 8
    [[ -0.46666667,   0.13333333,   0.00000000], 0.00444444],  # 9
    # ...
    [[  0.46666667,   0.46666667,   0.00000000], 0.00444444]]  # 224

plane wave coefficients: 10580
cutoff: 800.0 eV

spin-components: 4  # (non-collinear spins)
bands: 40
valence electrons: 30.0
spin-degeneracy: 1
dtype: complex128

memory:
    wave functions: 3_041_856_000  # bytes  (168_992_000 per core)

parallelization:
    kpt:    18
    domain: 1
    band:   1

density:
  components: 4
  grid points: [ 27  27 100]
  charge: 0.0  # |e|

potential:
  grid points: [ 27  27 100]

species:
  Ni:
    name: Nickel
    id: 1802175e8de9ea26d9f4394ec1a7d564
    Z: 28.0
    valence: 16
    core: 12
    charge: 0.0
    file: /zhome/86/d/1666/PAW/gpaw-setups-0.9.20000/Ni.LDA.gz
    compensation charges: {type: gauss,
                           rc: 0.36,
                           lmax: 2}
    cutoffs: {filter: 2.14,
              core: 1.98}
    valence states:
      #              energy  rcut
      - 4s(2.00)    -5.858   1.164
      - 3p(6.00)   -71.266   1.207
      - 4p(0.00)    -1.338   1.207
      - 3d(8.00)    -9.141   1.138
      -  s          21.353   1.164
      -  d          18.071   1.138
  
    # Using partial waves for Ni as LCAO basis

  I:
    name: Iodine
    id: b559721c0c096a7b4c8fc0e0f4de5cf4
    Z: 53.0
    valence: 7
    core: 46
    charge: 0.0
    file: /zhome/86/d/1666/PAW/gpaw-setups-0.9.20000/I.LDA.gz
    compensation charges: {type: gauss,
                           rc: 0.37,
                           lmax: 2}
    cutoffs: {filter: 2.06,
              core: 2.90}
    valence states:
      #              energy  rcut
      - 5s(2.00)   -17.626   1.164
      - 5p(5.00)    -7.241   1.164
      -  s           9.585   1.164
      -  p          19.970   1.164
      -  d           0.000   1.164
  
    # Using partial waves for I as LCAO basis

Reference energy: -428067.566327  # eV

eigensolver:
  name: 'Davidson'
  niter: 2
  converge_bands: 'occupied'
Density mixing:
  Method: sum
  Backend: pulay
  Linear mixing parameter: 0.05
  old densities: 5
  Damping of long wavelength oscillations: 100
occupation numbers:
  Fermi-Dirac:
    width: 0.1000  # eV
  

poisson solver:
  ecut: 6400.0  # eV

xc functional:
  name: None

convergence criteria:
- Maximum [total energy] change in last 3 cyles: 0.0005 eV / valence electron
- Maximum integral of absolute [dens]ity change: 0.0001 electrons / valence electron
- Maximum integral of absolute [eigenst]ate change: 4e-08 eV^2 / valence electron
maximum number of iterations: 333

#      iter     time        total  log10-change:
#                          energy   eigst   dens
# iter:   1 10:23:53   -13.244163                  +1.7,+0.0,+0.0
# iter:   2 10:24:24   -12.529719   +0.16  -1.31   +1.2,-0.0,+0.0
# iter:   3 10:24:55   -12.189572   -0.42  -1.46   +1.1,-0.0,-0.0
# iter:   4 10:25:26   -12.258696   -1.00  -1.68   +1.2,-0.0,-0.0
# iter:   5 10:25:57   -12.521389   -1.17  -1.66   +1.2,-0.0,-0.0
# iter:   6 10:26:28   -12.265843   -1.36  -1.73   +1.1,+0.0,-0.0
# iter:   7 10:26:59   -12.268874   -1.66  -2.25   +1.2,+0.0,+0.0
# iter:   8 10:27:30   -12.262261c  -1.83  -2.34   +1.2,+0.0,-0.0
# iter:   9 10:28:01   -12.262993c  -1.99  -2.66   +1.2,+0.0,-0.0
# iter:  10 10:28:33   -12.263750c  -2.18  -3.04   +1.2,+0.0,-0.0
# iter:  11 10:29:03   -12.270684c  -2.31  -3.01   +1.2,+0.0,+0.0
# iter:  12 10:29:35   -12.268907c  -2.49  -2.69   +1.2,+0.0,+0.0
# iter:  13 10:30:06   -12.269093c  -2.63  -2.77   +1.2,+0.0,+0.0
# iter:  14 10:30:36   -12.269257c  -2.77  -2.76   +1.2,+0.0,+0.0
# iter:  15 10:31:07   -12.265892c  -2.80  -2.76   +1.3,+0.0,+0.0
# iter:  16 10:31:38   -12.265853c  -3.03  -3.45   +1.3,+0.0,+0.0
# iter:  17 10:32:09   -12.265964c  -3.20  -3.56   +1.3,+0.0,+0.0
# iter:  18 10:32:40   -12.266736c  -3.33  -3.69   +1.3,+0.0,+0.0
# iter:  19 10:33:11   -12.266989c  -3.46  -3.93   +1.3,+0.0,+0.0
# iter:  20 10:33:42   -12.267171c  -3.60  -4.07c  +1.3,+0.0,+0.0
# iter:  21 10:34:13   -12.267296c  -3.74  -4.16c  +1.3,+0.0,+0.0
# iter:  22 10:34:44   -12.267341c  -3.87  -4.30c  +1.3,+0.0,+0.0
# iter:  23 10:35:15   -12.267391c  -4.01  -4.36c  +1.3,+0.0,+0.0
# iter:  24 10:35:46   -12.267436c  -4.15  -4.53c  +1.3,+0.0,+0.0
# iter:  25 10:36:17   -12.267462c  -4.28  -4.52c  +1.3,+0.0,+0.0
# iter:  26 10:36:48   -12.267534c  -4.42  -4.59c  +1.3,+0.0,+0.0
# iter:  27 10:37:19   -12.267581c  -4.56  -4.61c  +1.3,+0.0,+0.0
# iter:  28 10:37:50   -12.267630c  -4.70  -4.70c  +1.3,+0.0,+0.0
# iter:  29 10:38:21   -12.267642c  -4.84  -4.77c  +1.3,+0.0,+0.0
# iter:  30 10:38:53   -12.267675c  -4.98  -4.79c  +1.3,+0.0,+0.0
# iter:  31 10:39:24   -12.267700c  -5.12  -4.85c  +1.3,+0.0,+0.0
# iter:  32 10:39:55   -12.267698c  -5.27  -5.05c  +1.3,+0.0,+0.0
# iter:  33 10:40:27   -12.267696c  -5.41  -5.16c  +1.3,+0.0,+0.0
# iter:  34 10:40:58   -12.267691c  -5.55  -5.61c  +1.3,+0.0,+0.0
# iter:  35 10:41:29   -12.267689c  -5.70  -5.71c  +1.3,+0.0,+0.0
# iter:  36 10:42:01   -12.267690c  -5.84  -5.79c  +1.3,+0.0,+0.0
# iter:  37 10:42:32   -12.267692c  -5.98  -5.83c  +1.3,+0.0,+0.0
# iter:  38 10:43:03   -12.267694c  -6.12  -5.92c  +1.3,+0.0,+0.0
# iter:  39 10:43:35   -12.267693c  -6.26  -6.13c  +1.3,+0.0,+0.0
# iter:  40 10:44:06   -12.267694c  -6.40  -6.21c  +1.3,+0.0,+0.0
# iter:  41 10:44:37   -12.267694c  -6.55  -6.21c  +1.3,+0.0,+0.0
# iter:  42 10:45:08   -12.267694c  -6.70  -6.24c  +1.3,+0.0,+0.0
# iter:  43 10:45:39   -12.267694c  -6.84  -6.24c  +1.3,+0.0,+0.0
# iter:  44 10:46:10   -12.267695c  -6.99  -6.21c  +1.3,+0.0,+0.0
# iter:  45 10:46:42   -12.267694c  -7.13  -6.23c  +1.3,+0.0,+0.0
# iter:  46 10:47:13   -12.267695c  -7.27  -6.22c  +1.3,+0.0,+0.0
# iter:  47 10:47:44   -12.267695c  -7.41c -6.23c  +1.3,+0.0,+0.0
scf_steps: 47
energies:  # eV
  coulomb:          -7.939237
  zero:              0.067289
  xc:              -14.905499
  external:          0.000000
  kinetic:          10.540565
  spinorbit:         0.000000
  entropy:          -0.061625
  total:           -12.298507
  extrapolated:    -12.267695

dipole moment: [-3.654150, -6.442775, -2.004182]  # |e|*Ang

total magnetic moment: [1.278175, 0.009489, 0.000000]

local magnetic moments: [
  [ 1.113606, -0.003358,  0.000000],  # Ni 0
  [-0.037080, -0.065752,  0.000000],  # I  1
  [ 0.067892, -0.033003,  0.000000]]  # I  2


Fermi level: -1.191 eV

kpt = [-0.467, -0.467, 0.000], weight = 0.004:
  Band      eig [eV]   occ [0-1]
     0       -64.951       1.000
   ...
    22        -3.007       1.000
    23        -2.947       1.000
    24        -2.696       1.000
    25        -2.269       1.000
    26        -2.185       1.000
    27        -2.071       1.000
    28        -1.893       0.999
    29        -1.592       0.982
    30        -1.006       0.136
    31        -0.730       0.010
    32         2.230       0.000
    33         2.655       0.000
    34         4.257       0.000
    35         4.289       0.000
    36         4.729       0.000
    37         5.045       0.000
   ...
    39         5.763       0.000

kpt = [-0.467, -0.400, 0.000], weight = 0.004:
  Band      eig [eV]   occ [0-1]
     0       -64.951       1.000
   ...
    22        -2.984       1.000
    23        -2.930       1.000
    24        -2.733       1.000
    25        -2.331       1.000
    26        -2.145       1.000
    27        -2.097       1.000
    28        -1.789       0.997
    29        -1.603       0.984
    30        -0.930       0.068
    31        -0.736       0.011
    32         2.019       0.000
    33         2.580       0.000
    34         3.935       0.000
    35         4.444       0.000
    36         4.621       0.000
    37         5.017       0.000
   ...
    39         5.527       0.000

kpt = [-0.467, -0.333, 0.000], weight = 0.004:
  Band      eig [eV]   occ [0-1]
     0       -64.951       1.000
   ...
    22        -2.984       1.000
    23        -2.858       1.000
    24        -2.737       1.000
    25        -2.407       1.000
    26        -2.108       1.000
    27        -2.092       1.000
    28        -1.788       0.997
    29        -1.545       0.972
    30        -0.986       0.114
    31        -0.677       0.006
    32         2.033       0.000
    33         2.580       0.000
    34         3.781       0.000
    35         4.376       0.000
    36         4.613       0.000
    37         4.877       0.000
   ...
    39         5.671       0.000
(only showing first 3 out of 225 k-points)

No gap
# Writing to Band_Conv/gsq-29.gpw (mode='')

---

timing:  # [seconds]
  Total: 4502.562  # ━━━━━━━━━━━━━━━━━━━━━━━━━━━━━━━━━━━━━━━━━━━━━━━━━━━━━━━━
  Init:    18.253  # 
  SCF:   1459.736  # ━━━━━━━━━━━━━━━━━━

Max RSS: 2499.531  # MiB
