#  __  _  _
# | _ |_)|_||  |
# |__||  | ||/\| - 24.1.0

User:   s194113@n-62-29-10
Date:   Mon May  6 07:11:49 2024
Arch:   x86_64
Pid:    14705
CWD:    /work3/s194113/10302/10302_NM/NiI2
Python: 3.8.5
gpaw:   /zhome/87/8/147075/venv-name/gpaw/gpaw (10808453a8)
_gpaw:  /zhome/87/8/147075/venv-name/gpaw/
        _gpaw.cpython-38-x86_64-linux-gnu.so (10808453a8)
ase:    /zhome/87/8/147075/venv-name/ase/ase (version 3.23.0b1-c36115a2db)
numpy:  /zhome/87/8/147075/venv-name/lib/python3.8/site-packages/numpy (version 1.24.4)
scipy:  /zhome/87/8/147075/venv-name/lib/python3.8/site-packages/scipy (version 1.10.1)
libxc:  4.3.4
units:  Angstrom and eV
cores: 18
OpenMP: False
OMP_NUM_THREADS: 1

---
input parameters:
  kpts: 
    density: 8.0
    gamma: True
  magmoms: [[1.28782608, 0, 0], [0.19870794, 0, 0], [0.19870794, 0, 0]]
  mixer: 
    backend: 'pulay'
    beta: 0.05
    method: 'sum'
    nmaxold: 5
    weight: 100
  mode: 
    name: 'pw'
    ecut: 800.0
    qspiral: array([0.29166667, 0.        , 0.        ])
  parallel: 
    kpt: None
    domain: 1
    band: 1
    order: 'kdb'
    stridebands: False
    augment_grids: False
    sl_auto: False
    sl_default: None
    sl_diagonalize: None
    sl_inverse_cholesky: None
    sl_lcao: None
    sl_lrtddft: None
    use_elpa: False
    elpasolver: '2stage'
    buffer_size: None
    gpu: False
  symmetry: 
    point_group: False
    time_reversal: False
  xc: 
    name: 'LDA'

#                        
#                        
#                        
#                        
#                        
#              I         
#                        
#        Ni              
#          I             
#                        
#                        
#                        
#                        
#                        

atoms: [  # symbols, positions [Ang] and initial magnetic moments
  [ Ni, [   0.000000,    0.000000,    7.513573], [ 1.288,  0.000,  0.000]], # 0
  [  I, [   1.984831,    1.145943,    9.027147], [ 0.199,  0.000,  0.000]], # 1
  [  I, [   0.000000,    2.291885,    6.000000], [ 0.199,  0.000,  0.000]]] # 2

cell: [  # Ang
#     x            y            z
  [   3.969662,    0.000000,    0.000000],
  [  -1.984831,    3.437828,    0.000000],
  [   0.000000,    0.000000,   15.027147]]

periodic: [True      , True      , False     ]
lengths:  [  3.969662,   3.969662,  15.027147]  # Ang
angles:   [ 90.000000,  90.000000, 120.000000]

symmetry:
  number of symmetries: 1
  rotations: [
    [[ 1,  0,  0], [ 0,  1,  0], [ 0,  0,  1]]]

bz sampling:
  number of bz points: 225
  number of ibz points: 225
  monkhorst-pack size: [15, 15, 1]
  monkhorst-pack shift: [0, 0, 0]
  points and weights: [
    [[ -0.46666667,  -0.46666667,   0.00000000], 0.00444444],  # 0
    [[ -0.46666667,  -0.40000000,   0.00000000], 0.00444444],  # 1
    [[ -0.46666667,  -0.33333333,   0.00000000], 0.00444444],  # 2
    [[ -0.46666667,  -0.26666667,   0.00000000], 0.00444444],  # 3
    [[ -0.46666667,  -0.20000000,   0.00000000], 0.00444444],  # 4
    [[ -0.46666667,  -0.13333333,   0.00000000], 0.00444444],  # 5
    [[ -0.46666667,  -0.06666667,   0.00000000], 0.00444444],  # 6
    [[ -0.46666667,   0.00000000,   0.00000000], 0.00444444],  # 7
    [[ -0.46666667,   0.06666667,   0.00000000], 0.00444444],  # 8
    [[ -0.46666667,   0.13333333,   0.00000000], 0.00444444],  # 9
    # ...
    [[  0.46666667,   0.46666667,   0.00000000], 0.00444444]]  # 224

plane wave coefficients: 10580
cutoff: 800.0 eV

spin-components: 4  # (non-collinear spins)
bands: 40
valence electrons: 30.0
spin-degeneracy: 1
dtype: complex128

memory:
    wave functions: 3_041_856_000  # bytes  (168_992_000 per core)

parallelization:
    kpt:    18
    domain: 1
    band:   1

density:
  components: 4
  grid points: [ 27  27 100]
  charge: 0.0  # |e|

potential:
  grid points: [ 27  27 100]

species:
  Ni:
    name: Nickel
    id: 1802175e8de9ea26d9f4394ec1a7d564
    Z: 28.0
    valence: 16
    core: 12
    charge: 0.0
    file: /zhome/86/d/1666/PAW/gpaw-setups-0.9.20000/Ni.LDA.gz
    compensation charges: {type: gauss,
                           rc: 0.36,
                           lmax: 2}
    cutoffs: {filter: 2.14,
              core: 1.98}
    valence states:
      #              energy  rcut
      - 4s(2.00)    -5.858   1.164
      - 3p(6.00)   -71.266   1.207
      - 4p(0.00)    -1.338   1.207
      - 3d(8.00)    -9.141   1.138
      -  s          21.353   1.164
      -  d          18.071   1.138
  
    # Using partial waves for Ni as LCAO basis

  I:
    name: Iodine
    id: b559721c0c096a7b4c8fc0e0f4de5cf4
    Z: 53.0
    valence: 7
    core: 46
    charge: 0.0
    file: /zhome/86/d/1666/PAW/gpaw-setups-0.9.20000/I.LDA.gz
    compensation charges: {type: gauss,
                           rc: 0.37,
                           lmax: 2}
    cutoffs: {filter: 2.06,
              core: 2.90}
    valence states:
      #              energy  rcut
      - 5s(2.00)   -17.626   1.164
      - 5p(5.00)    -7.241   1.164
      -  s           9.585   1.164
      -  p          19.970   1.164
      -  d           0.000   1.164
  
    # Using partial waves for I as LCAO basis

Reference energy: -428067.566327  # eV

eigensolver:
  name: 'Davidson'
  niter: 2
  converge_bands: 'occupied'
Density mixing:
  Method: sum
  Backend: pulay
  Linear mixing parameter: 0.05
  old densities: 5
  Damping of long wavelength oscillations: 100
occupation numbers:
  Fermi-Dirac:
    width: 0.1000  # eV
  

poisson solver:
  ecut: 6400.0  # eV

xc functional:
  name: None

convergence criteria:
- Maximum [total energy] change in last 3 cyles: 0.0005 eV / valence electron
- Maximum integral of absolute [dens]ity change: 0.0001 electrons / valence electron
- Maximum integral of absolute [eigenst]ate change: 4e-08 eV^2 / valence electron
maximum number of iterations: 333

#      iter     time        total  log10-change:
#                          energy   eigst   dens
# iter:   1 07:12:36   -13.561915                  +1.7,+0.0,+0.0
# iter:   2 07:13:07   -12.624008   -0.06  -1.31   +1.3,-0.0,+0.0
# iter:   3 07:13:38   -12.236481   -0.55  -1.46   +1.3,-0.0,-0.0
# iter:   4 07:14:09   -12.317600   -1.18  -1.68   +1.4,-0.0,+0.0
# iter:   5 07:14:39   -12.487109   -1.38  -1.66   +1.4,+0.0,-0.0
# iter:   6 07:15:10   -12.317210   -1.58  -1.81   +1.4,+0.0,+0.0
# iter:   7 07:15:41   -12.309570   -1.87  -2.21   +1.4,+0.0,-0.0
# iter:   8 07:16:11   -12.302222c  -2.06  -2.35   +1.4,+0.0,-0.0
# iter:   9 07:16:42   -12.303078c  -2.24  -2.73   +1.4,+0.0,-0.0
# iter:  10 07:17:13   -12.303751c  -2.45  -3.03   +1.4,+0.0,-0.0
# iter:  11 07:17:44   -12.303725c  -2.57  -3.05   +1.5,+0.0,-0.0
# iter:  12 07:18:15   -12.303944c  -2.78  -2.98   +1.5,+0.0,+0.0
# iter:  13 07:18:45   -12.304155c  -2.93  -3.62   +1.5,+0.0,+0.0
# iter:  14 07:19:16   -12.304155c  -3.09  -3.84   +1.5,+0.0,+0.0
# iter:  15 07:19:47   -12.304293c  -3.23  -3.90   +1.5,+0.0,+0.0
# iter:  16 07:20:18   -12.304347c  -3.37  -4.02c  +1.5,+0.0,+0.0
# iter:  17 07:20:49   -12.304358c  -3.52  -4.02c  +1.5,+0.0,+0.0
# iter:  18 07:21:20   -12.304339c  -3.66  -4.02c  +1.5,+0.0,+0.0
# iter:  19 07:21:51   -12.304361c  -3.80  -4.03c  +1.5,+0.0,+0.0
# iter:  20 07:22:22   -12.304390c  -3.94  -3.95   +1.5,+0.0,+0.0
# iter:  21 07:22:52   -12.304448c  -4.07  -4.00   +1.5,+0.0,+0.0
# iter:  22 07:23:23   -12.304553c  -4.21  -4.03c  +1.5,+0.0,+0.0
# iter:  23 07:23:54   -12.304601c  -4.35  -4.05c  +1.5,+0.0,+0.0
# iter:  24 07:24:25   -12.304701c  -4.49  -4.06c  +1.5,+0.0,+0.0
# iter:  25 07:24:55   -12.304749c  -4.63  -4.10c  +1.5,+0.0,+0.0
# iter:  26 07:25:26   -12.304759c  -4.78  -4.15c  +1.5,+0.0,+0.0
# iter:  27 07:25:57   -12.304851c  -4.91  -4.31c  +1.5,+0.0,+0.0
# iter:  28 07:26:28   -12.304882c  -5.05  -4.60c  +1.5,+0.0,+0.0
# iter:  29 07:26:59   -12.304948c  -5.18  -4.67c  +1.5,+0.0,+0.0
# iter:  30 07:27:30   -12.304957c  -5.32  -4.77c  +1.5,+0.0,+0.0
# iter:  31 07:28:01   -12.304993c  -5.46  -4.79c  +1.5,+0.0,+0.0
# iter:  32 07:28:32   -12.305002c  -5.59  -4.78c  +1.5,+0.0,+0.0
# iter:  33 07:29:03   -12.305012c  -5.74  -4.84c  +1.5,+0.0,+0.0
# iter:  34 07:29:34   -12.305016c  -5.89  -4.89c  +1.5,+0.0,+0.0
# iter:  35 07:30:05   -12.305011c  -6.03  -4.92c  +1.5,+0.0,+0.0
# iter:  36 07:30:36   -12.304998c  -6.18  -5.15c  +1.5,+0.0,+0.0
# iter:  37 07:31:07   -12.304998c  -6.32  -5.18c  +1.5,+0.0,+0.0
# iter:  38 07:31:38   -12.304998c  -6.47  -5.21c  +1.5,+0.0,+0.0
# iter:  39 07:32:09   -12.304993c  -6.61  -5.35c  +1.5,+0.0,+0.0
# iter:  40 07:32:40   -12.305003c  -6.76  -5.32c  +1.5,+0.0,+0.0
# iter:  41 07:33:11   -12.305004c  -6.91  -5.47c  +1.5,+0.0,+0.0
# iter:  42 07:33:42   -12.305007c  -7.06  -5.56c  +1.5,+0.0,+0.0
# iter:  43 07:34:13   -12.305010c  -7.20  -5.63c  +1.5,+0.0,+0.0
# iter:  44 07:34:44   -12.305017c  -7.34  -5.70c  +1.5,+0.0,+0.0
# iter:  45 07:35:15   -12.305018c  -7.49c -6.13c  +1.5,+0.0,+0.0
scf_steps: 45
energies:  # eV
  coulomb:          -7.703328
  zero:              0.067525
  xc:              -14.897559
  external:          0.000000
  kinetic:          10.249896
  spinorbit:         0.000000
  entropy:          -0.043104
  total:           -12.326570
  extrapolated:    -12.305018

dipole moment: [-3.894107, -6.767547, -3.645974]  # |e|*Ang

total magnetic moment: [1.477628, 0.015123, 0.000000]

local magnetic moments: [
  [ 1.124295, -0.006044,  0.000000],  # Ni 0
  [ 0.027469, -0.113536,  0.000000],  # I  1
  [ 0.101949, -0.057019,  0.000000]]  # I  2


Fermi level: -1.175 eV

kpt = [-0.467, -0.467, 0.000], weight = 0.004:
  Band      eig [eV]   occ [0-1]
     0       -64.952       1.000
   ...
    22        -3.026       1.000
    23        -2.979       1.000
    24        -2.773       1.000
    25        -2.276       1.000
    26        -2.173       1.000
    27        -2.077       1.000
    28        -1.804       0.998
    29        -1.591       0.985
    30        -0.860       0.041
    31        -0.698       0.008
    32         1.849       0.000
    33         2.534       0.000
    34         3.962       0.000
    35         4.374       0.000
    36         4.505       0.000
    37         4.957       0.000
   ...
    39         5.593       0.000

kpt = [-0.467, -0.400, 0.000], weight = 0.004:
  Band      eig [eV]   occ [0-1]
     0       -64.952       1.000
   ...
    22        -3.047       1.000
    23        -2.907       1.000
    24        -2.823       1.000
    25        -2.305       1.000
    26        -2.133       1.000
    27        -2.102       1.000
    28        -1.754       0.997
    29        -1.649       0.991
    30        -0.828       0.030
    31        -0.706       0.009
    32         1.756       0.000
    33         2.595       0.000
    34         3.717       0.000
    35         4.357       0.000
    36         4.599       0.000
    37         5.080       0.000
   ...
    39         5.572       0.000

kpt = [-0.467, -0.333, 0.000], weight = 0.004:
  Band      eig [eV]   occ [0-1]
     0       -64.952       1.000
   ...
    22        -3.007       1.000
    23        -2.867       1.000
    24        -2.784       1.000
    25        -2.328       1.000
    26        -2.120       1.000
    27        -2.080       1.000
    28        -1.766       0.997
    29        -1.657       0.992
    30        -0.908       0.065
    31        -0.732       0.012
    32         1.990       0.000
    33         2.598       0.000
    34         3.875       0.000
    35         4.414       0.000
    36         4.854       0.000
    37         4.950       0.000
   ...
    39         5.537       0.000
(only showing first 3 out of 225 k-points)

Gap: 0.206 eV
Transition (v -> c):
  (s=0, k=82, n=29, [-0.13, 0.00, 0.00]) -> (s=0, k=109, n=30, [0.00, -0.20, 0.00])
# Writing to Band_Conv/gsq-21.gpw (mode='')

