#  __  _  _
# | _ |_)|_||  |
# |__||  | ||/\| - 24.1.0

User:   s194113@n-62-29-10
Date:   Tue May  7 14:16:46 2024
Arch:   x86_64
Pid:    14705
CWD:    /work3/s194113/10302/10302_NM/NiI2
Python: 3.8.5
gpaw:   /zhome/87/8/147075/venv-name/gpaw/gpaw (10808453a8)
_gpaw:  /zhome/87/8/147075/venv-name/gpaw/
        _gpaw.cpython-38-x86_64-linux-gnu.so (10808453a8)
ase:    /zhome/87/8/147075/venv-name/ase/ase (version 3.23.0b1-c36115a2db)
numpy:  /zhome/87/8/147075/venv-name/lib/python3.8/site-packages/numpy (version 1.24.4)
scipy:  /zhome/87/8/147075/venv-name/lib/python3.8/site-packages/scipy (version 1.10.1)
libxc:  4.3.4
units:  Angstrom and eV
cores: 18
OpenMP: False
OMP_NUM_THREADS: 1

---
input parameters:
  kpts: 
    density: 8.0
    gamma: True
  magmoms: [[1.28782608, 0, 0], [0.19870794, 0, 0], [0.19870794, 0, 0]]
  mixer: 
    backend: 'pulay'
    beta: 0.05
    method: 'sum'
    nmaxold: 5
    weight: 100
  mode: 
    name: 'pw'
    ecut: 800.0
    qspiral: array([0.03100775, 0.03100775, 0.        ])
  parallel: 
    kpt: None
    domain: 1
    band: 1
    order: 'kdb'
    stridebands: False
    augment_grids: False
    sl_auto: False
    sl_default: None
    sl_diagonalize: None
    sl_inverse_cholesky: None
    sl_lcao: None
    sl_lrtddft: None
    use_elpa: False
    elpasolver: '2stage'
    buffer_size: None
    gpu: False
  symmetry: 
    point_group: False
    time_reversal: False
  xc: 
    name: 'LDA'

#                        
#                        
#                        
#                        
#                        
#              I         
#                        
#        Ni              
#          I             
#                        
#                        
#                        
#                        
#                        

atoms: [  # symbols, positions [Ang] and initial magnetic moments
  [ Ni, [   0.000000,    0.000000,    7.513573], [ 1.288,  0.000,  0.000]], # 0
  [  I, [   1.984831,    1.145943,    9.027147], [ 0.199,  0.000,  0.000]], # 1
  [  I, [   0.000000,    2.291885,    6.000000], [ 0.199,  0.000,  0.000]]] # 2

cell: [  # Ang
#     x            y            z
  [   3.969662,    0.000000,    0.000000],
  [  -1.984831,    3.437828,    0.000000],
  [   0.000000,    0.000000,   15.027147]]

periodic: [True      , True      , False     ]
lengths:  [  3.969662,   3.969662,  15.027147]  # Ang
angles:   [ 90.000000,  90.000000, 120.000000]

symmetry:
  number of symmetries: 1
  rotations: [
    [[ 1,  0,  0], [ 0,  1,  0], [ 0,  0,  1]]]

bz sampling:
  number of bz points: 225
  number of ibz points: 225
  monkhorst-pack size: [15, 15, 1]
  monkhorst-pack shift: [0, 0, 0]
  points and weights: [
    [[ -0.46666667,  -0.46666667,   0.00000000], 0.00444444],  # 0
    [[ -0.46666667,  -0.40000000,   0.00000000], 0.00444444],  # 1
    [[ -0.46666667,  -0.33333333,   0.00000000], 0.00444444],  # 2
    [[ -0.46666667,  -0.26666667,   0.00000000], 0.00444444],  # 3
    [[ -0.46666667,  -0.20000000,   0.00000000], 0.00444444],  # 4
    [[ -0.46666667,  -0.13333333,   0.00000000], 0.00444444],  # 5
    [[ -0.46666667,  -0.06666667,   0.00000000], 0.00444444],  # 6
    [[ -0.46666667,   0.00000000,   0.00000000], 0.00444444],  # 7
    [[ -0.46666667,   0.06666667,   0.00000000], 0.00444444],  # 8
    [[ -0.46666667,   0.13333333,   0.00000000], 0.00444444],  # 9
    # ...
    [[  0.46666667,   0.46666667,   0.00000000], 0.00444444]]  # 224

plane wave coefficients: 10580
cutoff: 800.0 eV

spin-components: 4  # (non-collinear spins)
bands: 40
valence electrons: 30.0
spin-degeneracy: 1
dtype: complex128

memory:
    wave functions: 3_041_856_000  # bytes  (168_992_000 per core)

parallelization:
    kpt:    18
    domain: 1
    band:   1

density:
  components: 4
  grid points: [ 27  27 100]
  charge: 0.0  # |e|

potential:
  grid points: [ 27  27 100]

species:
  Ni:
    name: Nickel
    id: 1802175e8de9ea26d9f4394ec1a7d564
    Z: 28.0
    valence: 16
    core: 12
    charge: 0.0
    file: /zhome/86/d/1666/PAW/gpaw-setups-0.9.20000/Ni.LDA.gz
    compensation charges: {type: gauss,
                           rc: 0.36,
                           lmax: 2}
    cutoffs: {filter: 2.14,
              core: 1.98}
    valence states:
      #              energy  rcut
      - 4s(2.00)    -5.858   1.164
      - 3p(6.00)   -71.266   1.207
      - 4p(0.00)    -1.338   1.207
      - 3d(8.00)    -9.141   1.138
      -  s          21.353   1.164
      -  d          18.071   1.138
  
    # Using partial waves for Ni as LCAO basis

  I:
    name: Iodine
    id: b559721c0c096a7b4c8fc0e0f4de5cf4
    Z: 53.0
    valence: 7
    core: 46
    charge: 0.0
    file: /zhome/86/d/1666/PAW/gpaw-setups-0.9.20000/I.LDA.gz
    compensation charges: {type: gauss,
                           rc: 0.37,
                           lmax: 2}
    cutoffs: {filter: 2.06,
              core: 2.90}
    valence states:
      #              energy  rcut
      - 5s(2.00)   -17.626   1.164
      - 5p(5.00)    -7.241   1.164
      -  s           9.585   1.164
      -  p          19.970   1.164
      -  d           0.000   1.164
  
    # Using partial waves for I as LCAO basis

Reference energy: -428067.566327  # eV

eigensolver:
  name: 'Davidson'
  niter: 2
  converge_bands: 'occupied'
Density mixing:
  Method: sum
  Backend: pulay
  Linear mixing parameter: 0.05
  old densities: 5
  Damping of long wavelength oscillations: 100
occupation numbers:
  Fermi-Dirac:
    width: 0.1000  # eV
  

poisson solver:
  ecut: 6400.0  # eV

xc functional:
  name: None

convergence criteria:
- Maximum [total energy] change in last 3 cyles: 0.0005 eV / valence electron
- Maximum integral of absolute [dens]ity change: 0.0001 electrons / valence electron
- Maximum integral of absolute [eigenst]ate change: 4e-08 eV^2 / valence electron
maximum number of iterations: 333

#      iter     time        total  log10-change:
#                          energy   eigst   dens
# iter:   1 14:17:33   -13.870704                  +1.7,+0.0,+0.0
# iter:   2 14:18:04   -12.664401   -0.52  -1.32   +1.5,-0.0,+0.0
# iter:   3 14:18:34   -12.240151   -0.74  -1.46   +1.5,-0.0,+0.0
# iter:   4 14:19:05   -12.298634   -1.33  -1.68   +1.6,-0.0,+0.0
# iter:   5 14:19:35   -12.510026   -1.50  -1.65   +1.6,+0.0,+0.0
# iter:   6 14:20:06   -12.301177   -1.71  -1.77   +1.7,+0.0,+0.0
# iter:   7 14:20:36   -12.291970   -2.10  -2.21   +1.7,+0.0,+0.0
# iter:   8 14:21:07   -12.297340c  -2.37  -2.35   +1.7,+0.0,+0.0
# iter:   9 14:21:38   -12.290414c  -2.45  -2.39   +1.8,+0.0,+0.0
# iter:  10 14:22:08   -12.290702c  -2.81  -3.01   +1.8,+0.0,+0.0
# iter:  11 14:22:38   -12.290359c  -3.02  -3.04   +1.8,+0.0,+0.0
# iter:  12 14:23:09   -12.294558c  -3.08  -2.92   +1.8,+0.0,+0.0
# iter:  13 14:23:39   -12.294201c  -3.41  -2.95   +1.8,+0.0,-0.0
# iter:  14 14:24:10   -12.292551c  -3.45  -3.02   +1.8,+0.0,-0.0
# iter:  15 14:24:40   -12.293388c  -3.79  -3.62   +1.8,+0.0,-0.0
# iter:  16 14:25:10   -12.293362c  -3.96  -3.60   +1.8,+0.0,+0.0
# iter:  17 14:25:41   -12.293313c  -4.13  -3.75   +1.8,+0.0,+0.0
# iter:  18 14:26:11   -12.293240c  -4.30  -3.77   +1.8,+0.0,+0.0
# iter:  19 14:26:41   -12.293400c  -4.47  -3.88   +1.8,+0.0,+0.0
# iter:  20 14:27:12   -12.293566c  -4.63  -3.91   +1.8,+0.0,+0.0
# iter:  21 14:27:42   -12.293760c  -4.78  -3.99   +1.8,+0.0,+0.0
# iter:  22 14:28:13   -12.293849c  -4.97  -4.13c  +1.8,+0.0,+0.0
# iter:  23 14:28:43   -12.293926c  -5.15  -4.17c  +1.8,+0.0,+0.0
# iter:  24 14:29:14   -12.293953c  -5.32  -4.28c  +1.8,+0.0,+0.0
# iter:  25 14:29:44   -12.294085c  -5.47  -4.37c  +1.8,+0.0,+0.0
# iter:  26 14:30:14   -12.294089c  -5.66  -4.74c  +1.8,+0.0,+0.0
# iter:  27 14:30:45   -12.294087c  -5.83  -4.89c  +1.8,+0.0,+0.0
# iter:  28 14:31:15   -12.294058c  -5.99  -4.92c  +1.8,+0.0,+0.0
# iter:  29 14:31:45   -12.294040c  -6.16  -4.94c  +1.8,+0.0,+0.0
# iter:  30 14:32:16   -12.294042c  -6.33  -5.13c  +1.8,+0.0,+0.0
# iter:  31 14:32:46   -12.294045c  -6.49  -5.28c  +1.8,+0.0,+0.0
# iter:  32 14:33:17   -12.294047c  -6.65  -5.38c  +1.8,+0.0,+0.0
# iter:  33 14:33:47   -12.294048c  -6.80  -5.78c  +1.8,+0.0,+0.0
# iter:  34 14:34:18   -12.294057c  -6.96  -5.82c  +1.8,+0.0,+0.0
# iter:  35 14:34:48   -12.294057c  -7.12  -5.77c  +1.8,+0.0,+0.0
# iter:  36 14:35:19   -12.294057c  -7.27  -5.96c  +1.8,+0.0,+0.0
# iter:  37 14:35:50   -12.294058c  -7.43c -6.05c  +1.8,+0.0,+0.0
scf_steps: 37
energies:  # eV
  coulomb:          -8.061155
  zero:              0.067018
  xc:              -14.960737
  external:          0.000000
  kinetic:          10.686810
  spinorbit:         0.000000
  entropy:          -0.051987
  total:           -12.320051
  extrapolated:    -12.294058

dipole moment: [-4.232997, -7.331581, -6.324111]  # |e|*Ang

total magnetic moment: [1.807689, 0.005898, 0.000000]

local magnetic moments: [
  [ 1.147202, -0.002408,  0.000000],  # Ni 0
  [ 0.178142, -0.035544,  0.000000],  # I  1
  [ 0.178142, -0.035540,  0.000000]]  # I  2


Fermi level: -1.183 eV

kpt = [-0.467, -0.467, 0.000], weight = 0.004:
  Band      eig [eV]   occ [0-1]
     0       -64.977       1.000
   ...
    22        -3.167       1.000
    23        -3.020       1.000
    24        -2.924       1.000
    25        -2.319       1.000
    26        -2.169       1.000
    27        -2.140       1.000
    28        -1.608       0.986
    29        -1.509       0.963
    30        -0.663       0.005
    31        -0.614       0.003
    32         1.576       0.000
    33         1.912       0.000
    34         3.682       0.000
    35         4.101       0.000
    36         4.545       0.000
    37         4.636       0.000
   ...
    39         4.813       0.000

kpt = [-0.467, -0.400, 0.000], weight = 0.004:
  Band      eig [eV]   occ [0-1]
     0       -64.977       1.000
   ...
    22        -3.093       1.000
    23        -2.983       1.000
    24        -2.847       1.000
    25        -2.261       1.000
    26        -2.153       1.000
    27        -2.087       1.000
    28        -1.751       0.997
    29        -1.623       0.988
    30        -0.804       0.022
    31        -0.680       0.007
    32         1.881       0.000
    33         2.291       0.000
    34         4.126       0.000
    35         4.555       0.000
    36         4.673       0.000
    37         4.847       0.000
   ...
    39         5.143       0.000

kpt = [-0.467, -0.333, 0.000], weight = 0.004:
  Band      eig [eV]   occ [0-1]
     0       -64.977       1.000
   ...
    22        -3.059       1.000
    23        -2.946       1.000
    24        -2.762       1.000
    25        -2.237       1.000
    26        -2.146       1.000
    27        -2.031       1.000
    28        -1.950       1.000
    29        -1.652       0.991
    30        -0.981       0.117
    31        -0.706       0.008
    32         2.297       0.000
    33         2.614       0.000
    34         4.362       0.000
    35         4.486       0.000
    36         4.960       0.000
    37         5.184       0.000
   ...
    39         5.530       0.000
(only showing first 3 out of 225 k-points)

No gap
# Writing to Band_Conv/gsq-96.gpw (mode='')

---

timing:  # [seconds]
  Total: 1144.406  # ━━━━━━━━━━━━━━━━━━━━━━━━━━━━━━━━━━━━━━━━━━━━━━━━━━━━━━━━
  Init:    18.064  # ━
  SCF:   1125.532  # ━━━━━━━━━━━━━━━━━━━━━━━━━━━━━━━━━━━━━━━━━━━━━━━━━━━━━━━

Max RSS: 4319.602  # MiB
