#  __  _  _
# | _ |_)|_||  |
# |__||  | ||/\| - 24.1.0

User:   s194113@n-62-29-10
Date:   Tue May  7 05:40:02 2024
Arch:   x86_64
Pid:    14705
CWD:    /work3/s194113/10302/10302_NM/NiI2
Python: 3.8.5
gpaw:   /zhome/87/8/147075/venv-name/gpaw/gpaw (10808453a8)
_gpaw:  /zhome/87/8/147075/venv-name/gpaw/
        _gpaw.cpython-38-x86_64-linux-gnu.so (10808453a8)
ase:    /zhome/87/8/147075/venv-name/ase/ase (version 3.23.0b1-c36115a2db)
numpy:  /zhome/87/8/147075/venv-name/lib/python3.8/site-packages/numpy (version 1.24.4)
scipy:  /zhome/87/8/147075/venv-name/lib/python3.8/site-packages/scipy (version 1.10.1)
libxc:  4.3.4
units:  Angstrom and eV
cores: 18
OpenMP: False
OMP_NUM_THREADS: 1

---
input parameters:
  kpts: 
    density: 8.0
    gamma: True
  magmoms: [[1.28782608, 0, 0], [0.19870794, 0, 0], [0.19870794, 0, 0]]
  mixer: 
    backend: 'pulay'
    beta: 0.05
    method: 'sum'
    nmaxold: 5
    weight: 100
  mode: 
    name: 'pw'
    ecut: 800.0
    qspiral: array([0.20930233, 0.20930233, 0.        ])
  parallel: 
    kpt: None
    domain: 1
    band: 1
    order: 'kdb'
    stridebands: False
    augment_grids: False
    sl_auto: False
    sl_default: None
    sl_diagonalize: None
    sl_inverse_cholesky: None
    sl_lcao: None
    sl_lrtddft: None
    use_elpa: False
    elpasolver: '2stage'
    buffer_size: None
    gpu: False
  symmetry: 
    point_group: False
    time_reversal: False
  xc: 
    name: 'LDA'

#                        
#                        
#                        
#                        
#                        
#              I         
#                        
#        Ni              
#          I             
#                        
#                        
#                        
#                        
#                        

atoms: [  # symbols, positions [Ang] and initial magnetic moments
  [ Ni, [   0.000000,    0.000000,    7.513573], [ 1.288,  0.000,  0.000]], # 0
  [  I, [   1.984831,    1.145943,    9.027147], [ 0.199,  0.000,  0.000]], # 1
  [  I, [   0.000000,    2.291885,    6.000000], [ 0.199,  0.000,  0.000]]] # 2

cell: [  # Ang
#     x            y            z
  [   3.969662,    0.000000,    0.000000],
  [  -1.984831,    3.437828,    0.000000],
  [   0.000000,    0.000000,   15.027147]]

periodic: [True      , True      , False     ]
lengths:  [  3.969662,   3.969662,  15.027147]  # Ang
angles:   [ 90.000000,  90.000000, 120.000000]

symmetry:
  number of symmetries: 1
  rotations: [
    [[ 1,  0,  0], [ 0,  1,  0], [ 0,  0,  1]]]

bz sampling:
  number of bz points: 225
  number of ibz points: 225
  monkhorst-pack size: [15, 15, 1]
  monkhorst-pack shift: [0, 0, 0]
  points and weights: [
    [[ -0.46666667,  -0.46666667,   0.00000000], 0.00444444],  # 0
    [[ -0.46666667,  -0.40000000,   0.00000000], 0.00444444],  # 1
    [[ -0.46666667,  -0.33333333,   0.00000000], 0.00444444],  # 2
    [[ -0.46666667,  -0.26666667,   0.00000000], 0.00444444],  # 3
    [[ -0.46666667,  -0.20000000,   0.00000000], 0.00444444],  # 4
    [[ -0.46666667,  -0.13333333,   0.00000000], 0.00444444],  # 5
    [[ -0.46666667,  -0.06666667,   0.00000000], 0.00444444],  # 6
    [[ -0.46666667,   0.00000000,   0.00000000], 0.00444444],  # 7
    [[ -0.46666667,   0.06666667,   0.00000000], 0.00444444],  # 8
    [[ -0.46666667,   0.13333333,   0.00000000], 0.00444444],  # 9
    # ...
    [[  0.46666667,   0.46666667,   0.00000000], 0.00444444]]  # 224

plane wave coefficients: 10580
cutoff: 800.0 eV

spin-components: 4  # (non-collinear spins)
bands: 40
valence electrons: 30.0
spin-degeneracy: 1
dtype: complex128

memory:
    wave functions: 3_041_856_000  # bytes  (168_992_000 per core)

parallelization:
    kpt:    18
    domain: 1
    band:   1

density:
  components: 4
  grid points: [ 27  27 100]
  charge: 0.0  # |e|

potential:
  grid points: [ 27  27 100]

species:
  Ni:
    name: Nickel
    id: 1802175e8de9ea26d9f4394ec1a7d564
    Z: 28.0
    valence: 16
    core: 12
    charge: 0.0
    file: /zhome/86/d/1666/PAW/gpaw-setups-0.9.20000/Ni.LDA.gz
    compensation charges: {type: gauss,
                           rc: 0.36,
                           lmax: 2}
    cutoffs: {filter: 2.14,
              core: 1.98}
    valence states:
      #              energy  rcut
      - 4s(2.00)    -5.858   1.164
      - 3p(6.00)   -71.266   1.207
      - 4p(0.00)    -1.338   1.207
      - 3d(8.00)    -9.141   1.138
      -  s          21.353   1.164
      -  d          18.071   1.138
  
    # Using partial waves for Ni as LCAO basis

  I:
    name: Iodine
    id: b559721c0c096a7b4c8fc0e0f4de5cf4
    Z: 53.0
    valence: 7
    core: 46
    charge: 0.0
    file: /zhome/86/d/1666/PAW/gpaw-setups-0.9.20000/I.LDA.gz
    compensation charges: {type: gauss,
                           rc: 0.37,
                           lmax: 2}
    cutoffs: {filter: 2.06,
              core: 2.90}
    valence states:
      #              energy  rcut
      - 5s(2.00)   -17.626   1.164
      - 5p(5.00)    -7.241   1.164
      -  s           9.585   1.164
      -  p          19.970   1.164
      -  d           0.000   1.164
  
    # Using partial waves for I as LCAO basis

Reference energy: -428067.566327  # eV

eigensolver:
  name: 'Davidson'
  niter: 2
  converge_bands: 'occupied'
Density mixing:
  Method: sum
  Backend: pulay
  Linear mixing parameter: 0.05
  old densities: 5
  Damping of long wavelength oscillations: 100
occupation numbers:
  Fermi-Dirac:
    width: 0.1000  # eV
  

poisson solver:
  ecut: 6400.0  # eV

xc functional:
  name: None

convergence criteria:
- Maximum [total energy] change in last 3 cyles: 0.0005 eV / valence electron
- Maximum integral of absolute [dens]ity change: 0.0001 electrons / valence electron
- Maximum integral of absolute [eigenst]ate change: 4e-08 eV^2 / valence electron
maximum number of iterations: 333

#      iter     time        total  log10-change:
#                          energy   eigst   dens
# iter:   1 05:40:49   -13.378303                  +1.7,+0.0,+0.0
# iter:   2 05:41:20   -12.584215   +0.09  -1.31   +1.3,-0.0,-0.0
# iter:   3 05:41:51   -12.227332   -0.47  -1.46   +1.2,-0.0,+0.0
# iter:   4 05:42:23   -12.299190   -1.08  -1.68   +1.3,-0.0,+0.0
# iter:   5 05:42:55   -12.511534   -1.26  -1.67   +1.3,+0.0,-0.0
# iter:   6 05:43:27   -12.315212   -1.47  -1.78   +1.3,+0.0,+0.0
# iter:   7 05:43:59   -12.312406   -1.76  -2.21   +1.3,+0.0,+0.0
# iter:   8 05:44:31   -12.300665c  -1.92  -2.32   +1.3,+0.0,-0.0
# iter:   9 05:45:03   -12.302171c  -2.10  -2.77   +1.3,+0.0,+0.0
# iter:  10 05:45:35   -12.302044c  -2.30  -3.02   +1.3,+0.0,+0.0
# iter:  11 05:46:06   -12.302883c  -2.43  -3.15   +1.3,+0.0,-0.0
# iter:  12 05:46:38   -12.303073c  -2.60  -3.15   +1.3,+0.0,-0.0
# iter:  13 05:47:09   -12.303336c  -2.74  -3.74   +1.3,+0.0,-0.0
# iter:  14 05:47:40   -12.303317c  -2.88  -3.75   +1.3,+0.0,+0.0
# iter:  15 05:48:11   -12.303582c  -3.03  -3.71   +1.3,+0.0,-0.0
# iter:  16 05:48:42   -12.303829c  -3.16  -4.08c  +1.3,+0.0,-0.0
# iter:  17 05:49:13   -12.303734c  -3.30  -3.86   +1.3,+0.0,-0.0
# iter:  18 05:49:44   -12.303843c  -3.44  -4.15c  +1.4,+0.0,-0.0
# iter:  19 05:50:15   -12.303894c  -3.58  -4.35c  +1.4,+0.0,-0.0
# iter:  20 05:50:46   -12.303885c  -3.71  -4.38c  +1.4,+0.0,-0.0
# iter:  21 05:51:18   -12.303994c  -3.84  -4.34c  +1.4,+0.0,-0.0
# iter:  22 05:51:49   -12.303953c  -3.98  -4.37c  +1.4,+0.0,-0.0
# iter:  23 05:52:20   -12.303984c  -4.11  -4.34c  +1.4,+0.0,-0.0
# iter:  24 05:52:51   -12.303940c  -4.24  -4.36c  +1.4,+0.0,-0.0
# iter:  25 05:53:22   -12.303986c  -4.38  -4.32c  +1.4,+0.0,-0.0
# iter:  26 05:53:53   -12.304101c  -4.50  -4.32c  +1.4,+0.0,-0.0
# iter:  27 05:54:24   -12.304104c  -4.63  -4.41c  +1.4,+0.0,-0.0
# iter:  28 05:54:54   -12.304127c  -4.76  -4.44c  +1.4,+0.0,-0.0
# iter:  29 05:55:25   -12.304171c  -4.89  -4.48c  +1.4,+0.0,-0.0
# iter:  30 05:55:56   -12.304112c  -5.01  -4.61c  +1.4,+0.0,-0.0
# iter:  31 05:56:27   -12.304155c  -5.15  -4.49c  +1.4,+0.0,-0.0
# iter:  32 05:56:58   -12.304157c  -5.28  -4.98c  +1.4,+0.0,-0.0
# iter:  33 05:57:29   -12.304162c  -5.41  -5.17c  +1.4,+0.0,-0.0
# iter:  34 05:58:00   -12.304165c  -5.53  -5.43c  +1.4,+0.0,-0.0
# iter:  35 05:58:30   -12.304165c  -5.66  -5.52c  +1.4,+0.0,-0.0
# iter:  36 05:59:01   -12.304164c  -5.80  -5.47c  +1.4,+0.0,-0.0
# iter:  37 05:59:32   -12.304163c  -5.93  -5.72c  +1.4,+0.0,-0.0
# iter:  38 06:00:03   -12.304163c  -6.07  -5.78c  +1.4,+0.0,-0.0
# iter:  39 06:00:34   -12.304164c  -6.20  -5.82c  +1.4,+0.0,-0.0
# iter:  40 06:01:05   -12.304163c  -6.34  -5.92c  +1.4,+0.0,-0.0
# iter:  41 06:01:35   -12.304162c  -6.48  -5.97c  +1.4,+0.0,-0.0
# iter:  42 06:02:06   -12.304162c  -6.62  -5.91c  +1.4,+0.0,-0.0
# iter:  43 06:02:37   -12.304161c  -6.76  -5.89c  +1.4,+0.0,-0.0
# iter:  44 06:03:07   -12.304159c  -6.90  -5.97c  +1.4,+0.0,-0.0
# iter:  45 06:03:38   -12.304158c  -7.03  -6.10c  +1.4,+0.0,-0.0
# iter:  46 06:04:09   -12.304157c  -7.17  -6.16c  +1.4,+0.0,-0.0
# iter:  47 06:04:40   -12.304157c  -7.31  -6.16c  +1.4,+0.0,-0.0
# iter:  48 06:05:11   -12.304157c  -7.45c -6.20c  +1.4,+0.0,-0.0
scf_steps: 48
energies:  # eV
  coulomb:          -7.665333
  zero:              0.067649
  xc:              -14.886019
  external:          0.000000
  kinetic:          10.199830
  spinorbit:         0.000000
  entropy:          -0.040566
  total:           -12.324441
  extrapolated:    -12.304157

dipole moment: [-3.780433, -6.547063, -2.816578]  # |e|*Ang

total magnetic moment: [1.356172, 0.015666, -0.000000]

local magnetic moments: [
  [ 1.120533, -0.006089, -0.000000],  # Ni 0
  [ 0.021754, -0.084954, -0.000000],  # I  1
  [ 0.021688, -0.084971, -0.000000]]  # I  2


Fermi level: -1.191 eV

kpt = [-0.467, -0.467, 0.000], weight = 0.004:
  Band      eig [eV]   occ [0-1]
     0       -64.948       1.000
   ...
    22        -3.047       1.000
    23        -2.881       1.000
    24        -2.792       1.000
    25        -2.296       1.000
    26        -2.140       1.000
    27        -2.092       1.000
    28        -1.833       0.998
    29        -1.695       0.994
    30        -0.931       0.069
    31        -0.797       0.019
    32         2.097       0.000
    33         2.582       0.000
    34         4.459       0.000
    35         4.763       0.000
    36         4.942       0.000
    37         4.962       0.000
   ...
    39         5.131       0.000

kpt = [-0.467, -0.400, 0.000], weight = 0.004:
  Band      eig [eV]   occ [0-1]
     0       -64.948       1.000
   ...
    22        -3.022       1.000
    23        -2.884       1.000
    24        -2.850       1.000
    25        -2.363       1.000
    26        -2.153       1.000
    27        -2.130       1.000
    28        -1.727       0.995
    29        -1.651       0.990
    30        -0.822       0.024
    31        -0.784       0.017
    32         1.764       0.000
    33         2.589       0.000
    34         3.915       0.000
    35         4.576       0.000
    36         4.781       0.000
    37         4.814       0.000
   ...
    39         5.637       0.000

kpt = [-0.467, -0.333, 0.000], weight = 0.004:
  Band      eig [eV]   occ [0-1]
     0       -64.948       1.000
   ...
    22        -3.001       1.000
    23        -2.909       1.000
    24        -2.853       1.000
    25        -2.443       1.000
    26        -2.173       1.000
    27        -2.137       1.000
    28        -1.710       0.994
    29        -1.514       0.962
    30        -0.859       0.035
    31        -0.671       0.005
    32         1.637       0.000
    33         2.503       0.000
    34         3.658       0.000
    35         4.395       0.000
    36         4.658       0.000
    37         4.927       0.000
   ...
    39         5.670       0.000
(only showing first 3 out of 225 k-points)

Gap: 0.360 eV
Transition (v -> c):
  (s=0, k=157, n=29, [0.20, 0.00, 0.00]) -> (s=0, k=168, n=30, [0.27, -0.27, 0.00])
# Writing to Band_Conv/gsq-73.gpw (mode='')

---

timing:  # [seconds]
  Total: 3037.463  # ━━━━━━━━━━━━━━━━━━━━━━━━━━━━━━━━━━━━━━━━━━━━━━━━━━━━━━━━
  Init:    17.990  # ╸
  SCF:   1491.093  # ━━━━━━━━━━━━━━━━━━━━━━━━━━━╸

Max RSS: 3505.641  # MiB
