#  __  _  _
# | _ |_)|_||  |
# |__||  | ||/\| - 24.1.0

User:   s194113@n-62-29-10
Date:   Mon May  6 02:51:43 2024
Arch:   x86_64
Pid:    14705
CWD:    /work3/s194113/10302/10302_NM/NiI2
Python: 3.8.5
gpaw:   /zhome/87/8/147075/venv-name/gpaw/gpaw (10808453a8)
_gpaw:  /zhome/87/8/147075/venv-name/gpaw/
        _gpaw.cpython-38-x86_64-linux-gnu.so (10808453a8)
ase:    /zhome/87/8/147075/venv-name/ase/ase (version 3.23.0b1-c36115a2db)
numpy:  /zhome/87/8/147075/venv-name/lib/python3.8/site-packages/numpy (version 1.24.4)
scipy:  /zhome/87/8/147075/venv-name/lib/python3.8/site-packages/scipy (version 1.10.1)
libxc:  4.3.4
units:  Angstrom and eV
cores: 18
OpenMP: False
OMP_NUM_THREADS: 1

---
input parameters:
  kpts: 
    density: 8.0
    gamma: True
  magmoms: [[1.28782608, 0, 0], [0.19870794, 0, 0], [0.19870794, 0, 0]]
  mixer: 
    backend: 'pulay'
    beta: 0.05
    method: 'sum'
    nmaxold: 5
    weight: 100
  mode: 
    name: 'pw'
    ecut: 800.0
    qspiral: array([0.125, 0.   , 0.   ])
  parallel: 
    kpt: None
    domain: 1
    band: 1
    order: 'kdb'
    stridebands: False
    augment_grids: False
    sl_auto: False
    sl_default: None
    sl_diagonalize: None
    sl_inverse_cholesky: None
    sl_lcao: None
    sl_lrtddft: None
    use_elpa: False
    elpasolver: '2stage'
    buffer_size: None
    gpu: False
  symmetry: 
    point_group: False
    time_reversal: False
  xc: 
    name: 'LDA'

#                        
#                        
#                        
#                        
#                        
#              I         
#                        
#        Ni              
#          I             
#                        
#                        
#                        
#                        
#                        

atoms: [  # symbols, positions [Ang] and initial magnetic moments
  [ Ni, [   0.000000,    0.000000,    7.513573], [ 1.288,  0.000,  0.000]], # 0
  [  I, [   1.984831,    1.145943,    9.027147], [ 0.199,  0.000,  0.000]], # 1
  [  I, [   0.000000,    2.291885,    6.000000], [ 0.199,  0.000,  0.000]]] # 2

cell: [  # Ang
#     x            y            z
  [   3.969662,    0.000000,    0.000000],
  [  -1.984831,    3.437828,    0.000000],
  [   0.000000,    0.000000,   15.027147]]

periodic: [True      , True      , False     ]
lengths:  [  3.969662,   3.969662,  15.027147]  # Ang
angles:   [ 90.000000,  90.000000, 120.000000]

symmetry:
  number of symmetries: 1
  rotations: [
    [[ 1,  0,  0], [ 0,  1,  0], [ 0,  0,  1]]]

bz sampling:
  number of bz points: 225
  number of ibz points: 225
  monkhorst-pack size: [15, 15, 1]
  monkhorst-pack shift: [0, 0, 0]
  points and weights: [
    [[ -0.46666667,  -0.46666667,   0.00000000], 0.00444444],  # 0
    [[ -0.46666667,  -0.40000000,   0.00000000], 0.00444444],  # 1
    [[ -0.46666667,  -0.33333333,   0.00000000], 0.00444444],  # 2
    [[ -0.46666667,  -0.26666667,   0.00000000], 0.00444444],  # 3
    [[ -0.46666667,  -0.20000000,   0.00000000], 0.00444444],  # 4
    [[ -0.46666667,  -0.13333333,   0.00000000], 0.00444444],  # 5
    [[ -0.46666667,  -0.06666667,   0.00000000], 0.00444444],  # 6
    [[ -0.46666667,   0.00000000,   0.00000000], 0.00444444],  # 7
    [[ -0.46666667,   0.06666667,   0.00000000], 0.00444444],  # 8
    [[ -0.46666667,   0.13333333,   0.00000000], 0.00444444],  # 9
    # ...
    [[  0.46666667,   0.46666667,   0.00000000], 0.00444444]]  # 224

plane wave coefficients: 10580
cutoff: 800.0 eV

spin-components: 4  # (non-collinear spins)
bands: 40
valence electrons: 30.0
spin-degeneracy: 1
dtype: complex128

memory:
    wave functions: 3_041_856_000  # bytes  (168_992_000 per core)

parallelization:
    kpt:    18
    domain: 1
    band:   1

density:
  components: 4
  grid points: [ 27  27 100]
  charge: 0.0  # |e|

potential:
  grid points: [ 27  27 100]

species:
  Ni:
    name: Nickel
    id: 1802175e8de9ea26d9f4394ec1a7d564
    Z: 28.0
    valence: 16
    core: 12
    charge: 0.0
    file: /zhome/86/d/1666/PAW/gpaw-setups-0.9.20000/Ni.LDA.gz
    compensation charges: {type: gauss,
                           rc: 0.36,
                           lmax: 2}
    cutoffs: {filter: 2.14,
              core: 1.98}
    valence states:
      #              energy  rcut
      - 4s(2.00)    -5.858   1.164
      - 3p(6.00)   -71.266   1.207
      - 4p(0.00)    -1.338   1.207
      - 3d(8.00)    -9.141   1.138
      -  s          21.353   1.164
      -  d          18.071   1.138
  
    # Using partial waves for Ni as LCAO basis

  I:
    name: Iodine
    id: b559721c0c096a7b4c8fc0e0f4de5cf4
    Z: 53.0
    valence: 7
    core: 46
    charge: 0.0
    file: /zhome/86/d/1666/PAW/gpaw-setups-0.9.20000/I.LDA.gz
    compensation charges: {type: gauss,
                           rc: 0.37,
                           lmax: 2}
    cutoffs: {filter: 2.06,
              core: 2.90}
    valence states:
      #              energy  rcut
      - 5s(2.00)   -17.626   1.164
      - 5p(5.00)    -7.241   1.164
      -  s           9.585   1.164
      -  p          19.970   1.164
      -  d           0.000   1.164
  
    # Using partial waves for I as LCAO basis

Reference energy: -428067.566327  # eV

eigensolver:
  name: 'Davidson'
  niter: 2
  converge_bands: 'occupied'
Density mixing:
  Method: sum
  Backend: pulay
  Linear mixing parameter: 0.05
  old densities: 5
  Damping of long wavelength oscillations: 100
occupation numbers:
  Fermi-Dirac:
    width: 0.1000  # eV
  

poisson solver:
  ecut: 6400.0  # eV

xc functional:
  name: None

convergence criteria:
- Maximum [total energy] change in last 3 cyles: 0.0005 eV / valence electron
- Maximum integral of absolute [dens]ity change: 0.0001 electrons / valence electron
- Maximum integral of absolute [eigenst]ate change: 4e-08 eV^2 / valence electron
maximum number of iterations: 333

#      iter     time        total  log10-change:
#                          energy   eigst   dens
# iter:   1 02:52:30   -13.822938                  +1.7,+0.0,+0.0
# iter:   2 02:53:02   -12.665829   -0.45  -1.32   +1.5,-0.0,+0.0
# iter:   3 02:53:33   -12.246679   -0.74  -1.46   +1.5,-0.0,+0.0
# iter:   4 02:54:04   -12.306209   -1.43  -1.68   +1.6,-0.0,-0.0
# iter:   5 02:54:35   -12.500733   -1.57  -1.66   +1.6,+0.0,+0.0
# iter:   6 02:55:05   -12.321642   -1.80  -1.80   +1.7,+0.0,-0.0
# iter:   7 02:55:36   -12.310597   -2.18  -2.19   +1.7,+0.0,-0.0
# iter:   8 02:56:07   -12.305123   -2.43  -2.34   +1.7,+0.0,-0.0
# iter:   9 02:56:37   -12.305366c  -2.58  -2.62   +1.7,+0.0,+0.0
# iter:  10 02:57:08   -12.306878c  -2.90  -3.01   +1.7,+0.0,+0.0
# iter:  11 02:57:38   -12.308443c  -3.11  -2.95   +1.7,+0.0,+0.0
# iter:  12 02:58:09   -12.306667c  -3.26  -2.84   +1.7,+0.0,+0.0
# iter:  13 02:58:39   -12.306026c  -3.40  -3.23   +1.7,+0.0,-0.0
# iter:  14 02:59:10   -12.306220c  -3.68  -3.67   +1.7,+0.0,-0.0
# iter:  15 02:59:40   -12.306357c  -3.85  -3.83   +1.7,+0.0,-0.0
# iter:  16 03:00:11   -12.306534c  -4.02  -3.95   +1.7,+0.0,-0.0
# iter:  17 03:00:42   -12.306575c  -4.19  -4.07c  +1.7,+0.0,+0.0
# iter:  18 03:01:13   -12.306634c  -4.34  -4.18c  +1.7,+0.0,+0.0
# iter:  19 03:01:43   -12.307001c  -4.49  -4.22c  +1.7,+0.0,+0.0
# iter:  20 03:02:14   -12.307033c  -4.66  -4.65c  +1.7,+0.0,+0.0
# iter:  21 03:02:46   -12.307035c  -4.82  -4.72c  +1.7,+0.0,+0.0
# iter:  22 03:03:17   -12.307038c  -4.98  -4.64c  +1.7,+0.0,+0.0
# iter:  23 03:03:48   -12.307033c  -5.13  -4.76c  +1.7,+0.0,+0.0
# iter:  24 03:04:19   -12.307118c  -5.28  -4.72c  +1.7,+0.0,-0.0
# iter:  25 03:04:50   -12.307118c  -5.44  -4.79c  +1.7,+0.0,-0.0
# iter:  26 03:05:20   -12.307115c  -5.60  -5.14c  +1.7,+0.0,-0.0
# iter:  27 03:05:51   -12.307119c  -5.76  -5.25c  +1.7,+0.0,-0.0
# iter:  28 03:06:22   -12.307123c  -5.92  -5.46c  +1.7,+0.0,-0.0
# iter:  29 03:06:53   -12.307128c  -6.08  -5.70c  +1.7,+0.0,-0.0
# iter:  30 03:07:23   -12.307132c  -6.23  -5.67c  +1.7,+0.0,-0.0
# iter:  31 03:07:54   -12.307133c  -6.39  -5.78c  +1.7,+0.0,-0.0
# iter:  32 03:08:25   -12.307138c  -6.54  -5.86c  +1.7,+0.0,-0.0
# iter:  33 03:08:56   -12.307137c  -6.70  -6.04c  +1.7,+0.0,-0.0
# iter:  34 03:09:26   -12.307138c  -6.85  -6.10c  +1.7,+0.0,-0.0
# iter:  35 03:09:57   -12.307138c  -6.99  -6.13c  +1.7,+0.0,-0.0
# iter:  36 03:10:28   -12.307138c  -7.15  -6.23c  +1.7,+0.0,-0.0
# iter:  37 03:10:59   -12.307138c  -7.30  -6.35c  +1.7,+0.0,-0.0
# iter:  38 03:11:30   -12.307138c  -7.45c -6.44c  +1.7,+0.0,-0.0
scf_steps: 38
energies:  # eV
  coulomb:          -7.897717
  zero:              0.067292
  xc:              -14.939942
  external:          0.000000
  kinetic:          10.485290
  spinorbit:         0.000000
  entropy:          -0.044122
  total:           -12.329199
  extrapolated:    -12.307138

dipole moment: [-4.178552, -7.223321, -5.832597]  # |e|*Ang

total magnetic moment: [1.748266, 0.010782, -0.000000]

local magnetic moments: [
  [ 1.144161, -0.004571, -0.000000],  # Ni 0
  [ 0.147147, -0.086334, -0.000000],  # I  1
  [ 0.164747, -0.044319, -0.000000]]  # I  2


Fermi level: -1.184 eV

kpt = [-0.467, -0.467, 0.000], weight = 0.004:
  Band      eig [eV]   occ [0-1]
     0       -64.971       1.000
   ...
    22        -3.143       1.000
    23        -3.003       1.000
    24        -2.905       1.000
    25        -2.307       1.000
    26        -2.165       1.000
    27        -2.127       1.000
    28        -1.626       0.988
    29        -1.554       0.976
    30        -0.685       0.007
    31        -0.631       0.004
    32         1.569       0.000
    33         2.081       0.000
    34         3.627       0.000
    35         4.353       0.000
    36         4.474       0.000
    37         4.720       0.000
   ...
    39         5.030       0.000

kpt = [-0.467, -0.400, 0.000], weight = 0.004:
  Band      eig [eV]   occ [0-1]
     0       -64.971       1.000
   ...
    22        -3.084       1.000
    23        -2.957       1.000
    24        -2.857       1.000
    25        -2.266       1.000
    26        -2.141       1.000
    27        -2.094       1.000
    28        -1.736       0.996
    29        -1.651       0.991
    30        -0.773       0.016
    31        -0.702       0.008
    32         1.791       0.000
    33         2.403       0.000
    34         3.906       0.000
    35         4.492       0.000
    36         4.762       0.000
    37         4.858       0.000
   ...
    39         5.508       0.000

kpt = [-0.467, -0.333, 0.000], weight = 0.004:
  Band      eig [eV]   occ [0-1]
     0       -64.971       1.000
   ...
    22        -3.034       1.000
    23        -2.941       1.000
    24        -2.764       1.000
    25        -2.245       1.000
    26        -2.141       1.000
    27        -2.041       1.000
    28        -1.893       0.999
    29        -1.677       0.993
    30        -0.949       0.087
    31        -0.729       0.010
    32         2.229       0.000
    33         2.607       0.000
    34         4.284       0.000
    35         4.607       0.000
    36         4.757       0.000
    37         5.052       0.000
   ...
    39         5.759       0.000
(only showing first 3 out of 225 k-points)

No gap
# Writing to Band_Conv/gsq-09.gpw (mode='')

