#  __  _  _
# | _ |_)|_||  |
# |__||  | ||/\| - 24.1.0

User:   s194113@n-62-29-10
Date:   Tue May  7 10:49:44 2024
Arch:   x86_64
Pid:    14705
CWD:    /work3/s194113/10302/10302_NM/NiI2
Python: 3.8.5
gpaw:   /zhome/87/8/147075/venv-name/gpaw/gpaw (10808453a8)
_gpaw:  /zhome/87/8/147075/venv-name/gpaw/
        _gpaw.cpython-38-x86_64-linux-gnu.so (10808453a8)
ase:    /zhome/87/8/147075/venv-name/ase/ase (version 3.23.0b1-c36115a2db)
numpy:  /zhome/87/8/147075/venv-name/lib/python3.8/site-packages/numpy (version 1.24.4)
scipy:  /zhome/87/8/147075/venv-name/lib/python3.8/site-packages/scipy (version 1.10.1)
libxc:  4.3.4
units:  Angstrom and eV
cores: 18
OpenMP: False
OMP_NUM_THREADS: 1

---
input parameters:
  kpts: 
    density: 8.0
    gamma: True
  magmoms: [[1.28782608, 0, 0], [0.19870794, 0, 0], [0.19870794, 0, 0]]
  mixer: 
    backend: 'pulay'
    beta: 0.05
    method: 'sum'
    nmaxold: 5
    weight: 100
  mode: 
    name: 'pw'
    ecut: 800.0
    qspiral: array([0.10852713, 0.10852713, 0.        ])
  parallel: 
    kpt: None
    domain: 1
    band: 1
    order: 'kdb'
    stridebands: False
    augment_grids: False
    sl_auto: False
    sl_default: None
    sl_diagonalize: None
    sl_inverse_cholesky: None
    sl_lcao: None
    sl_lrtddft: None
    use_elpa: False
    elpasolver: '2stage'
    buffer_size: None
    gpu: False
  symmetry: 
    point_group: False
    time_reversal: False
  xc: 
    name: 'LDA'

#                        
#                        
#                        
#                        
#                        
#              I         
#                        
#        Ni              
#          I             
#                        
#                        
#                        
#                        
#                        

atoms: [  # symbols, positions [Ang] and initial magnetic moments
  [ Ni, [   0.000000,    0.000000,    7.513573], [ 1.288,  0.000,  0.000]], # 0
  [  I, [   1.984831,    1.145943,    9.027147], [ 0.199,  0.000,  0.000]], # 1
  [  I, [   0.000000,    2.291885,    6.000000], [ 0.199,  0.000,  0.000]]] # 2

cell: [  # Ang
#     x            y            z
  [   3.969662,    0.000000,    0.000000],
  [  -1.984831,    3.437828,    0.000000],
  [   0.000000,    0.000000,   15.027147]]

periodic: [True      , True      , False     ]
lengths:  [  3.969662,   3.969662,  15.027147]  # Ang
angles:   [ 90.000000,  90.000000, 120.000000]

symmetry:
  number of symmetries: 1
  rotations: [
    [[ 1,  0,  0], [ 0,  1,  0], [ 0,  0,  1]]]

bz sampling:
  number of bz points: 225
  number of ibz points: 225
  monkhorst-pack size: [15, 15, 1]
  monkhorst-pack shift: [0, 0, 0]
  points and weights: [
    [[ -0.46666667,  -0.46666667,   0.00000000], 0.00444444],  # 0
    [[ -0.46666667,  -0.40000000,   0.00000000], 0.00444444],  # 1
    [[ -0.46666667,  -0.33333333,   0.00000000], 0.00444444],  # 2
    [[ -0.46666667,  -0.26666667,   0.00000000], 0.00444444],  # 3
    [[ -0.46666667,  -0.20000000,   0.00000000], 0.00444444],  # 4
    [[ -0.46666667,  -0.13333333,   0.00000000], 0.00444444],  # 5
    [[ -0.46666667,  -0.06666667,   0.00000000], 0.00444444],  # 6
    [[ -0.46666667,   0.00000000,   0.00000000], 0.00444444],  # 7
    [[ -0.46666667,   0.06666667,   0.00000000], 0.00444444],  # 8
    [[ -0.46666667,   0.13333333,   0.00000000], 0.00444444],  # 9
    # ...
    [[  0.46666667,   0.46666667,   0.00000000], 0.00444444]]  # 224

plane wave coefficients: 10580
cutoff: 800.0 eV

spin-components: 4  # (non-collinear spins)
bands: 40
valence electrons: 30.0
spin-degeneracy: 1
dtype: complex128

memory:
    wave functions: 3_041_856_000  # bytes  (168_992_000 per core)

parallelization:
    kpt:    18
    domain: 1
    band:   1

density:
  components: 4
  grid points: [ 27  27 100]
  charge: 0.0  # |e|

potential:
  grid points: [ 27  27 100]

species:
  Ni:
    name: Nickel
    id: 1802175e8de9ea26d9f4394ec1a7d564
    Z: 28.0
    valence: 16
    core: 12
    charge: 0.0
    file: /zhome/86/d/1666/PAW/gpaw-setups-0.9.20000/Ni.LDA.gz
    compensation charges: {type: gauss,
                           rc: 0.36,
                           lmax: 2}
    cutoffs: {filter: 2.14,
              core: 1.98}
    valence states:
      #              energy  rcut
      - 4s(2.00)    -5.858   1.164
      - 3p(6.00)   -71.266   1.207
      - 4p(0.00)    -1.338   1.207
      - 3d(8.00)    -9.141   1.138
      -  s          21.353   1.164
      -  d          18.071   1.138
  
    # Using partial waves for Ni as LCAO basis

  I:
    name: Iodine
    id: b559721c0c096a7b4c8fc0e0f4de5cf4
    Z: 53.0
    valence: 7
    core: 46
    charge: 0.0
    file: /zhome/86/d/1666/PAW/gpaw-setups-0.9.20000/I.LDA.gz
    compensation charges: {type: gauss,
                           rc: 0.37,
                           lmax: 2}
    cutoffs: {filter: 2.06,
              core: 2.90}
    valence states:
      #              energy  rcut
      - 5s(2.00)   -17.626   1.164
      - 5p(5.00)    -7.241   1.164
      -  s           9.585   1.164
      -  p          19.970   1.164
      -  d           0.000   1.164
  
    # Using partial waves for I as LCAO basis

Reference energy: -428067.566327  # eV

eigensolver:
  name: 'Davidson'
  niter: 2
  converge_bands: 'occupied'
Density mixing:
  Method: sum
  Backend: pulay
  Linear mixing parameter: 0.05
  old densities: 5
  Damping of long wavelength oscillations: 100
occupation numbers:
  Fermi-Dirac:
    width: 0.1000  # eV
  

poisson solver:
  ecut: 6400.0  # eV

xc functional:
  name: None

convergence criteria:
- Maximum [total energy] change in last 3 cyles: 0.0005 eV / valence electron
- Maximum integral of absolute [dens]ity change: 0.0001 electrons / valence electron
- Maximum integral of absolute [eigenst]ate change: 4e-08 eV^2 / valence electron
maximum number of iterations: 333

#      iter     time        total  log10-change:
#                          energy   eigst   dens
# iter:   1 10:50:31   -13.754548                  +1.7,+0.0,+0.0
# iter:   2 10:51:02   -12.664303   -0.30  -1.32   +1.5,-0.0,-0.0
# iter:   3 10:51:34   -12.253770   -0.68  -1.46   +1.5,-0.0,-0.0
# iter:   4 10:52:05   -12.321661   -1.38  -1.68   +1.5,-0.0,+0.0
# iter:   5 10:52:36   -12.504236   -1.54  -1.66   +1.6,+0.0,+0.0
# iter:   6 10:53:06   -12.340386   -1.79  -1.81   +1.6,+0.0,-0.0
# iter:   7 10:53:37   -12.322566   -2.09  -2.16   +1.6,+0.0,+0.0
# iter:   8 10:54:08   -12.315024   -2.33  -2.34   +1.6,+0.0,+0.0
# iter:   9 10:54:39   -12.315742c  -2.51  -2.67   +1.6,+0.0,+0.0
# iter:  10 10:55:10   -12.317773c  -2.78  -3.01   +1.6,+0.0,+0.0
# iter:  11 10:55:41   -12.317718c  -2.99  -2.87   +1.6,+0.0,+0.0
# iter:  12 10:56:11   -12.316127c  -3.12  -2.94   +1.6,+0.0,+0.0
# iter:  13 10:56:42   -12.316057c  -3.32  -3.61   +1.6,+0.0,-0.0
# iter:  14 10:57:13   -12.316218c  -3.49  -3.91   +1.6,+0.0,-0.0
# iter:  15 10:57:44   -12.316332c  -3.65  -3.97   +1.6,+0.0,-0.0
# iter:  16 10:58:15   -12.316389c  -3.80  -4.02c  +1.7,+0.0,+0.0
# iter:  17 10:58:46   -12.316575c  -3.95  -4.08c  +1.7,+0.0,+0.0
# iter:  18 10:59:17   -12.316558c  -4.10  -4.17c  +1.7,+0.0,-0.0
# iter:  19 10:59:48   -12.316559c  -4.25  -4.25c  +1.7,+0.0,-0.0
# iter:  20 11:00:19   -12.316579c  -4.40  -4.26c  +1.7,+0.0,-0.0
# iter:  21 11:00:50   -12.316570c  -4.54  -4.25c  +1.7,+0.0,-0.0
# iter:  22 11:01:21   -12.316600c  -4.69  -4.23c  +1.7,+0.0,-0.0
# iter:  23 11:01:52   -12.316600c  -4.83  -4.32c  +1.7,+0.0,-0.0
# iter:  24 11:02:23   -12.316601c  -4.97  -4.32c  +1.7,+0.0,-0.0
# iter:  25 11:02:54   -12.316590c  -5.12  -4.31c  +1.7,+0.0,-0.0
# iter:  26 11:03:25   -12.316594c  -5.26  -4.27c  +1.7,+0.0,-0.0
# iter:  27 11:03:57   -12.316608c  -5.42  -4.35c  +1.7,+0.0,-0.0
# iter:  28 11:04:28   -12.316626c  -5.55  -4.36c  +1.7,+0.0,-0.0
# iter:  29 11:04:59   -12.316747c  -5.68  -4.36c  +1.7,+0.0,-0.0
# iter:  30 11:05:30   -12.316787c  -5.83  -4.45c  +1.7,+0.0,-0.0
# iter:  31 11:06:01   -12.316798c  -5.97  -4.47c  +1.7,+0.0,-0.0
# iter:  32 11:06:32   -12.316798c  -6.12  -4.51c  +1.7,+0.0,-0.0
# iter:  33 11:07:04   -12.316797c  -6.26  -4.55c  +1.7,+0.0,-0.0
# iter:  34 11:07:35   -12.316781c  -6.33  -4.58c  +1.7,+0.0,-0.0
# iter:  35 11:08:06   -12.316789c  -6.50  -4.87c  +1.7,+0.0,-0.0
# iter:  36 11:08:37   -12.316802c  -6.63  -4.93c  +1.7,+0.0,-0.0
# iter:  37 11:09:08   -12.316805c  -6.78  -5.03c  +1.7,+0.0,-0.0
# iter:  38 11:09:39   -12.316803c  -6.92  -5.04c  +1.7,+0.0,-0.0
# iter:  39 11:10:10   -12.316807c  -7.07  -5.08c  +1.7,+0.0,-0.0
# iter:  40 11:10:41   -12.316808c  -7.22  -5.08c  +1.7,+0.0,-0.0
# iter:  41 11:11:12   -12.316809c  -7.36  -5.12c  +1.7,+0.0,-0.0
# iter:  42 11:11:43   -12.316808c  -7.50c -5.10c  +1.7,+0.0,-0.0
scf_steps: 42
energies:  # eV
  coulomb:          -7.720010
  zero:              0.067333
  xc:              -14.914749
  external:          0.000000
  kinetic:          10.269765
  spinorbit:         0.000000
  entropy:          -0.038295
  total:           -12.335955
  extrapolated:    -12.316808

dipole moment: [-4.086092, -7.076746, -5.156091]  # |e|*Ang

total magnetic moment: [1.660924, 0.016479, -0.000000]

local magnetic moments: [
  [ 1.136440, -0.006910, -0.000000],  # Ni 0
  [ 0.118828, -0.097664, -0.000000],  # I  1
  [ 0.118814, -0.097680, -0.000000]]  # I  2


Fermi level: -1.184 eV

kpt = [-0.467, -0.467, 0.000], weight = 0.004:
  Band      eig [eV]   occ [0-1]
     0       -64.961       1.000
   ...
    22        -3.103       1.000
    23        -2.971       1.000
    24        -2.887       1.000
    25        -2.290       1.000
    26        -2.154       1.000
    27        -2.127       1.000
    28        -1.665       0.992
    29        -1.625       0.988
    30        -0.707       0.008
    31        -0.699       0.008
    32         1.618       0.000
    33         2.303       0.000
    34         3.709       0.000
    35         4.585       0.000
    36         4.633       0.000
    37         4.704       0.000
   ...
    39         5.185       0.000

kpt = [-0.467, -0.400, 0.000], weight = 0.004:
  Band      eig [eV]   occ [0-1]
     0       -64.961       1.000
   ...
    22        -3.087       1.000
    23        -2.948       1.000
    24        -2.887       1.000
    25        -2.297       1.000
    26        -2.147       1.000
    27        -2.111       1.000
    28        -1.745       0.996
    29        -1.634       0.989
    30        -0.752       0.013
    31        -0.695       0.007
    32         1.603       0.000
    33         2.551       0.000
    34         3.660       0.000
    35         4.479       0.000
    36         4.607       0.000
    37         4.768       0.000
   ...
    39         5.979       0.000

kpt = [-0.467, -0.333, 0.000], weight = 0.004:
  Band      eig [eV]   occ [0-1]
     0       -64.961       1.000
   ...
    22        -3.030       1.000
    23        -2.937       1.000
    24        -2.798       1.000
    25        -2.302       1.000
    26        -2.148       1.000
    27        -2.093       1.000
    28        -1.809       0.998
    29        -1.622       0.988
    30        -0.876       0.044
    31        -0.721       0.010
    32         1.898       0.000
    33         2.611       0.000
    34         4.049       0.000
    35         4.509       0.000
    36         4.584       0.000
    37         4.941       0.000
   ...
    39         5.648       0.000
(only showing first 3 out of 225 k-points)

Gap: 0.198 eV
Transition (v -> c):
  (s=0, k=112, n=29, [0.00, 0.00, 0.00]) -> (s=0, k=48, n=30, [-0.27, -0.27, 0.00])
# Writing to Band_Conv/gsq-86.gpw (mode='')

