#  __  _  _
# | _ |_)|_||  |
# |__||  | ||/\| - 24.1.0

User:   s194113@n-62-29-10
Date:   Tue May  7 03:32:55 2024
Arch:   x86_64
Pid:    14705
CWD:    /work3/s194113/10302/10302_NM/NiI2
Python: 3.8.5
gpaw:   /zhome/87/8/147075/venv-name/gpaw/gpaw (10808453a8)
_gpaw:  /zhome/87/8/147075/venv-name/gpaw/
        _gpaw.cpython-38-x86_64-linux-gnu.so (10808453a8)
ase:    /zhome/87/8/147075/venv-name/ase/ase (version 3.23.0b1-c36115a2db)
numpy:  /zhome/87/8/147075/venv-name/lib/python3.8/site-packages/numpy (version 1.24.4)
scipy:  /zhome/87/8/147075/venv-name/lib/python3.8/site-packages/scipy (version 1.10.1)
libxc:  4.3.4
units:  Angstrom and eV
cores: 18
OpenMP: False
OMP_NUM_THREADS: 1

---
input parameters:
  kpts: 
    density: 8.0
    gamma: True
  magmoms: [[1.28782608, 0, 0], [0.19870794, 0, 0], [0.19870794, 0, 0]]
  mixer: 
    backend: 'pulay'
    beta: 0.05
    method: 'sum'
    nmaxold: 5
    weight: 100
  mode: 
    name: 'pw'
    ecut: 800.0
    qspiral: array([0.24806202, 0.24806202, 0.        ])
  parallel: 
    kpt: None
    domain: 1
    band: 1
    order: 'kdb'
    stridebands: False
    augment_grids: False
    sl_auto: False
    sl_default: None
    sl_diagonalize: None
    sl_inverse_cholesky: None
    sl_lcao: None
    sl_lrtddft: None
    use_elpa: False
    elpasolver: '2stage'
    buffer_size: None
    gpu: False
  symmetry: 
    point_group: False
    time_reversal: False
  xc: 
    name: 'LDA'

#                        
#                        
#                        
#                        
#                        
#              I         
#                        
#        Ni              
#          I             
#                        
#                        
#                        
#                        
#                        

atoms: [  # symbols, positions [Ang] and initial magnetic moments
  [ Ni, [   0.000000,    0.000000,    7.513573], [ 1.288,  0.000,  0.000]], # 0
  [  I, [   1.984831,    1.145943,    9.027147], [ 0.199,  0.000,  0.000]], # 1
  [  I, [   0.000000,    2.291885,    6.000000], [ 0.199,  0.000,  0.000]]] # 2

cell: [  # Ang
#     x            y            z
  [   3.969662,    0.000000,    0.000000],
  [  -1.984831,    3.437828,    0.000000],
  [   0.000000,    0.000000,   15.027147]]

periodic: [True      , True      , False     ]
lengths:  [  3.969662,   3.969662,  15.027147]  # Ang
angles:   [ 90.000000,  90.000000, 120.000000]

symmetry:
  number of symmetries: 1
  rotations: [
    [[ 1,  0,  0], [ 0,  1,  0], [ 0,  0,  1]]]

bz sampling:
  number of bz points: 225
  number of ibz points: 225
  monkhorst-pack size: [15, 15, 1]
  monkhorst-pack shift: [0, 0, 0]
  points and weights: [
    [[ -0.46666667,  -0.46666667,   0.00000000], 0.00444444],  # 0
    [[ -0.46666667,  -0.40000000,   0.00000000], 0.00444444],  # 1
    [[ -0.46666667,  -0.33333333,   0.00000000], 0.00444444],  # 2
    [[ -0.46666667,  -0.26666667,   0.00000000], 0.00444444],  # 3
    [[ -0.46666667,  -0.20000000,   0.00000000], 0.00444444],  # 4
    [[ -0.46666667,  -0.13333333,   0.00000000], 0.00444444],  # 5
    [[ -0.46666667,  -0.06666667,   0.00000000], 0.00444444],  # 6
    [[ -0.46666667,   0.00000000,   0.00000000], 0.00444444],  # 7
    [[ -0.46666667,   0.06666667,   0.00000000], 0.00444444],  # 8
    [[ -0.46666667,   0.13333333,   0.00000000], 0.00444444],  # 9
    # ...
    [[  0.46666667,   0.46666667,   0.00000000], 0.00444444]]  # 224

plane wave coefficients: 10580
cutoff: 800.0 eV

spin-components: 4  # (non-collinear spins)
bands: 40
valence electrons: 30.0
spin-degeneracy: 1
dtype: complex128

memory:
    wave functions: 3_041_856_000  # bytes  (168_992_000 per core)

parallelization:
    kpt:    18
    domain: 1
    band:   1

density:
  components: 4
  grid points: [ 27  27 100]
  charge: 0.0  # |e|

potential:
  grid points: [ 27  27 100]

species:
  Ni:
    name: Nickel
    id: 1802175e8de9ea26d9f4394ec1a7d564
    Z: 28.0
    valence: 16
    core: 12
    charge: 0.0
    file: /zhome/86/d/1666/PAW/gpaw-setups-0.9.20000/Ni.LDA.gz
    compensation charges: {type: gauss,
                           rc: 0.36,
                           lmax: 2}
    cutoffs: {filter: 2.14,
              core: 1.98}
    valence states:
      #              energy  rcut
      - 4s(2.00)    -5.858   1.164
      - 3p(6.00)   -71.266   1.207
      - 4p(0.00)    -1.338   1.207
      - 3d(8.00)    -9.141   1.138
      -  s          21.353   1.164
      -  d          18.071   1.138
  
    # Using partial waves for Ni as LCAO basis

  I:
    name: Iodine
    id: b559721c0c096a7b4c8fc0e0f4de5cf4
    Z: 53.0
    valence: 7
    core: 46
    charge: 0.0
    file: /zhome/86/d/1666/PAW/gpaw-setups-0.9.20000/I.LDA.gz
    compensation charges: {type: gauss,
                           rc: 0.37,
                           lmax: 2}
    cutoffs: {filter: 2.06,
              core: 2.90}
    valence states:
      #              energy  rcut
      - 5s(2.00)   -17.626   1.164
      - 5p(5.00)    -7.241   1.164
      -  s           9.585   1.164
      -  p          19.970   1.164
      -  d           0.000   1.164
  
    # Using partial waves for I as LCAO basis

Reference energy: -428067.566327  # eV

eigensolver:
  name: 'Davidson'
  niter: 2
  converge_bands: 'occupied'
Density mixing:
  Method: sum
  Backend: pulay
  Linear mixing parameter: 0.05
  old densities: 5
  Damping of long wavelength oscillations: 100
occupation numbers:
  Fermi-Dirac:
    width: 0.1000  # eV
  

poisson solver:
  ecut: 6400.0  # eV

xc functional:
  name: None

convergence criteria:
- Maximum [total energy] change in last 3 cyles: 0.0005 eV / valence electron
- Maximum integral of absolute [dens]ity change: 0.0001 electrons / valence electron
- Maximum integral of absolute [eigenst]ate change: 4e-08 eV^2 / valence electron
maximum number of iterations: 333

#      iter     time        total  log10-change:
#                          energy   eigst   dens
# iter:   1 03:33:42   -13.161566                  +1.7,+0.0,+0.0
# iter:   2 03:34:14   -12.534026   +0.22  -1.31   +1.2,-0.0,-0.0
# iter:   3 03:34:45   -12.210378   -0.39  -1.46   +1.1,-0.0,-0.0
# iter:   4 03:35:17   -12.273293   -0.97  -1.68   +1.2,-0.0,+0.0
# iter:   5 03:35:48   -12.529526   -1.14  -1.67   +1.2,-0.0,+0.0
# iter:   6 03:36:19   -12.301135   -1.36  -1.75   +1.1,+0.0,-0.0
# iter:   7 03:36:51   -12.304342   -1.64  -2.23   +1.2,+0.0,+0.0
# iter:   8 03:37:22   -12.291710c  -1.79  -2.31   +1.2,+0.0,+0.0
# iter:   9 03:37:54   -12.293188c  -1.97  -2.76   +1.2,+0.0,-0.0
# iter:  10 03:38:25   -12.293372c  -2.15  -3.03   +1.2,+0.0,-0.0
# iter:  11 03:38:56   -12.294564c  -2.28  -3.11   +1.2,+0.0,-0.0
# iter:  12 03:39:28   -12.294764c  -2.44  -3.07   +1.2,+0.0,+0.0
# iter:  13 03:39:59   -12.295223c  -2.58  -3.71   +1.2,+0.0,+0.0
# iter:  14 03:40:30   -12.295138c  -2.72  -3.55   +1.2,+0.0,+0.0
# iter:  15 03:41:02   -12.295392c  -2.87  -3.60   +1.2,+0.0,+0.0
# iter:  16 03:41:33   -12.295518c  -3.00  -4.06c  +1.2,+0.0,-0.0
# iter:  17 03:42:04   -12.295507c  -3.13  -4.02c  +1.2,+0.0,-0.0
# iter:  18 03:42:36   -12.295512c  -3.27  -4.10c  +1.2,+0.0,-0.0
# iter:  19 03:43:07   -12.295579c  -3.39  -4.04c  +1.2,+0.0,-0.0
# iter:  20 03:43:38   -12.295585c  -3.53  -4.17c  +1.2,+0.0,-0.0
# iter:  21 03:44:09   -12.295579c  -3.66  -4.13c  +1.2,+0.0,-0.0
# iter:  22 03:44:40   -12.295555c  -3.79  -4.22c  +1.2,+0.0,-0.0
# iter:  23 03:45:11   -12.295624c  -3.92  -4.16c  +1.2,+0.0,-0.0
# iter:  24 03:45:42   -12.295631c  -4.05  -4.21c  +1.2,+0.0,-0.0
# iter:  25 03:46:13   -12.295627c  -4.19  -4.22c  +1.2,+0.0,-0.0
# iter:  26 03:46:44   -12.295568c  -4.32  -4.23c  +1.2,+0.0,-0.0
# iter:  27 03:47:15   -12.295838c  -4.44  -4.19c  +1.2,+0.0,-0.0
# iter:  28 03:47:47   -12.295911c  -4.57  -4.38c  +1.2,+0.0,-0.0
# iter:  29 03:48:18   -12.295973c  -4.69  -4.43c  +1.2,+0.0,-0.0
# iter:  30 03:48:49   -12.295984c  -4.82  -4.67c  +1.2,+0.0,-0.0
# iter:  31 03:49:20   -12.296034c  -4.96  -4.73c  +1.2,+0.0,-0.0
# iter:  32 03:49:51   -12.296045c  -5.08  -4.90c  +1.2,+0.0,-0.0
# iter:  33 03:50:22   -12.296073c  -5.21  -4.94c  +1.2,+0.0,-0.0
# iter:  34 03:50:54   -12.296083c  -5.34  -4.93c  +1.2,+0.0,-0.0
# iter:  35 03:51:24   -12.296084c  -5.48  -5.18c  +1.2,+0.0,-0.0
# iter:  36 03:51:55   -12.296088c  -5.61  -5.46c  +1.2,+0.0,-0.0
# iter:  37 03:52:27   -12.296091c  -5.74  -5.47c  +1.2,+0.0,-0.0
# iter:  38 03:52:58   -12.296104c  -5.87  -5.51c  +1.2,+0.0,-0.0
# iter:  39 03:53:28   -12.296109c  -6.00  -5.67c  +1.2,+0.0,-0.0
# iter:  40 03:54:00   -12.296109c  -6.14  -5.77c  +1.2,+0.0,-0.0
# iter:  41 03:54:31   -12.296108c  -6.28  -5.83c  +1.2,+0.0,-0.0
# iter:  42 03:55:02   -12.296110c  -6.42  -6.00c  +1.2,+0.0,-0.0
# iter:  43 03:55:33   -12.296112c  -6.56  -6.01c  +1.2,+0.0,-0.0
# iter:  44 03:56:04   -12.296114c  -6.70  -6.09c  +1.2,+0.0,-0.0
# iter:  45 03:56:35   -12.296114c  -6.85  -6.31c  +1.2,+0.0,-0.0
# iter:  46 03:57:06   -12.296113c  -6.99  -6.36c  +1.2,+0.0,-0.0
# iter:  47 03:57:37   -12.296113c  -7.13  -6.49c  +1.2,+0.0,-0.0
# iter:  48 03:58:08   -12.296112c  -7.27  -6.57c  +1.2,+0.0,-0.0
# iter:  49 03:58:39   -12.296112c  -7.42c -6.58c  +1.2,+0.0,-0.0
scf_steps: 49
energies:  # eV
  coulomb:          -7.687695
  zero:              0.067606
  xc:              -14.881702
  external:          0.000000
  kinetic:          10.227462
  spinorbit:         0.000000
  entropy:          -0.043567
  total:           -12.317895
  extrapolated:    -12.296112

dipole moment: [-3.665207, -6.347512, -1.960471]  # |e|*Ang

total magnetic moment: [1.241000, 0.011307, -0.000000]

local magnetic moments: [
  [ 1.115165, -0.004262, -0.000000],  # Ni 0
  [ 0.000531, -0.059113, -0.000000],  # I  1
  [ 0.000456, -0.059114, -0.000000]]  # I  2


Fermi level: -1.195 eV

kpt = [-0.467, -0.467, 0.000], weight = 0.004:
  Band      eig [eV]   occ [0-1]
     0       -64.943       1.000
   ...
    22        -3.038       1.000
    23        -2.847       1.000
    24        -2.777       1.000
    25        -2.310       1.000
    26        -2.133       1.000
    27        -2.085       1.000
    28        -1.858       0.999
    29        -1.736       0.996
    30        -0.972       0.097
    31        -0.845       0.029
    32         2.295       0.000
    33         2.603       0.000
    34         4.693       0.000
    35         4.836       0.000
    36         4.917       0.000
    37         4.955       0.000
   ...
    39         5.329       0.000

kpt = [-0.467, -0.400, 0.000], weight = 0.004:
  Band      eig [eV]   occ [0-1]
     0       -64.943       1.000
   ...
    22        -3.000       1.000
    23        -2.860       1.000
    24        -2.820       1.000
    25        -2.380       1.000
    26        -2.157       1.000
    27        -2.126       1.000
    28        -1.738       0.996
    29        -1.667       0.991
    30        -0.860       0.034
    31        -0.832       0.026
    32         1.961       0.000
    33         2.579       0.000
    34         4.223       0.000
    35         4.706       0.000
    36         4.723       0.000
    37         4.885       0.000
   ...
    39         5.383       0.000

kpt = [-0.467, -0.333, 0.000], weight = 0.004:
  Band      eig [eV]   occ [0-1]
     0       -64.943       1.000
   ...
    22        -2.971       1.000
    23        -2.900       1.000
    24        -2.833       1.000
    25        -2.461       1.000
    26        -2.196       1.000
    27        -2.127       1.000
    28        -1.696       0.993
    29        -1.500       0.955
    30        -0.876       0.039
    31        -0.690       0.006
    32         1.711       0.000
    33         2.477       0.000
    34         3.770       0.000
    35         4.436       0.000
    36         4.487       0.000
    37         4.931       0.000
   ...
    39         5.517       0.000
(only showing first 3 out of 225 k-points)

Gap: 0.358 eV
Transition (v -> c):
  (s=0, k=144, n=29, [0.13, 0.13, 0.00]) -> (s=0, k=210, n=30, [0.47, -0.47, 0.00])
# Writing to Band_Conv/gsq-68.gpw (mode='')

---

timing:  # [seconds]
  Total: 3939.114  # ━━━━━━━━━━━━━━━━━━━━━━━━━━━━━━━━━━━━━━━━━━━━━━━━━━━━━━━━
  Init:    18.024  # ╸
  SCF:   1526.575  # ━━━━━━━━━━━━━━━━━━━━━╸

Max RSS: 3281.352  # MiB
