#  __  _  _
# | _ |_)|_||  |
# |__||  | ||/\| - 24.1.0

User:   s194113@n-62-29-10
Date:   Tue May  7 11:11:44 2024
Arch:   x86_64
Pid:    14705
CWD:    /work3/s194113/10302/10302_NM/NiI2
Python: 3.8.5
gpaw:   /zhome/87/8/147075/venv-name/gpaw/gpaw (10808453a8)
_gpaw:  /zhome/87/8/147075/venv-name/gpaw/
        _gpaw.cpython-38-x86_64-linux-gnu.so (10808453a8)
ase:    /zhome/87/8/147075/venv-name/ase/ase (version 3.23.0b1-c36115a2db)
numpy:  /zhome/87/8/147075/venv-name/lib/python3.8/site-packages/numpy (version 1.24.4)
scipy:  /zhome/87/8/147075/venv-name/lib/python3.8/site-packages/scipy (version 1.10.1)
libxc:  4.3.4
units:  Angstrom and eV
cores: 18
OpenMP: False
OMP_NUM_THREADS: 1

---
input parameters:
  kpts: 
    density: 8.0
    gamma: True
  magmoms: [[1.28782608, 0, 0], [0.19870794, 0, 0], [0.19870794, 0, 0]]
  mixer: 
    backend: 'pulay'
    beta: 0.05
    method: 'sum'
    nmaxold: 5
    weight: 100
  mode: 
    name: 'pw'
    ecut: 800.0
    qspiral: array([0.10077519, 0.10077519, 0.        ])
  parallel: 
    kpt: None
    domain: 1
    band: 1
    order: 'kdb'
    stridebands: False
    augment_grids: False
    sl_auto: False
    sl_default: None
    sl_diagonalize: None
    sl_inverse_cholesky: None
    sl_lcao: None
    sl_lrtddft: None
    use_elpa: False
    elpasolver: '2stage'
    buffer_size: None
    gpu: False
  symmetry: 
    point_group: False
    time_reversal: False
  xc: 
    name: 'LDA'

#                        
#                        
#                        
#                        
#                        
#              I         
#                        
#        Ni              
#          I             
#                        
#                        
#                        
#                        
#                        

atoms: [  # symbols, positions [Ang] and initial magnetic moments
  [ Ni, [   0.000000,    0.000000,    7.513573], [ 1.288,  0.000,  0.000]], # 0
  [  I, [   1.984831,    1.145943,    9.027147], [ 0.199,  0.000,  0.000]], # 1
  [  I, [   0.000000,    2.291885,    6.000000], [ 0.199,  0.000,  0.000]]] # 2

cell: [  # Ang
#     x            y            z
  [   3.969662,    0.000000,    0.000000],
  [  -1.984831,    3.437828,    0.000000],
  [   0.000000,    0.000000,   15.027147]]

periodic: [True      , True      , False     ]
lengths:  [  3.969662,   3.969662,  15.027147]  # Ang
angles:   [ 90.000000,  90.000000, 120.000000]

symmetry:
  number of symmetries: 1
  rotations: [
    [[ 1,  0,  0], [ 0,  1,  0], [ 0,  0,  1]]]

bz sampling:
  number of bz points: 225
  number of ibz points: 225
  monkhorst-pack size: [15, 15, 1]
  monkhorst-pack shift: [0, 0, 0]
  points and weights: [
    [[ -0.46666667,  -0.46666667,   0.00000000], 0.00444444],  # 0
    [[ -0.46666667,  -0.40000000,   0.00000000], 0.00444444],  # 1
    [[ -0.46666667,  -0.33333333,   0.00000000], 0.00444444],  # 2
    [[ -0.46666667,  -0.26666667,   0.00000000], 0.00444444],  # 3
    [[ -0.46666667,  -0.20000000,   0.00000000], 0.00444444],  # 4
    [[ -0.46666667,  -0.13333333,   0.00000000], 0.00444444],  # 5
    [[ -0.46666667,  -0.06666667,   0.00000000], 0.00444444],  # 6
    [[ -0.46666667,   0.00000000,   0.00000000], 0.00444444],  # 7
    [[ -0.46666667,   0.06666667,   0.00000000], 0.00444444],  # 8
    [[ -0.46666667,   0.13333333,   0.00000000], 0.00444444],  # 9
    # ...
    [[  0.46666667,   0.46666667,   0.00000000], 0.00444444]]  # 224

plane wave coefficients: 10580
cutoff: 800.0 eV

spin-components: 4  # (non-collinear spins)
bands: 40
valence electrons: 30.0
spin-degeneracy: 1
dtype: complex128

memory:
    wave functions: 3_041_856_000  # bytes  (168_992_000 per core)

parallelization:
    kpt:    18
    domain: 1
    band:   1

density:
  components: 4
  grid points: [ 27  27 100]
  charge: 0.0  # |e|

potential:
  grid points: [ 27  27 100]

species:
  Ni:
    name: Nickel
    id: 1802175e8de9ea26d9f4394ec1a7d564
    Z: 28.0
    valence: 16
    core: 12
    charge: 0.0
    file: /zhome/86/d/1666/PAW/gpaw-setups-0.9.20000/Ni.LDA.gz
    compensation charges: {type: gauss,
                           rc: 0.36,
                           lmax: 2}
    cutoffs: {filter: 2.14,
              core: 1.98}
    valence states:
      #              energy  rcut
      - 4s(2.00)    -5.858   1.164
      - 3p(6.00)   -71.266   1.207
      - 4p(0.00)    -1.338   1.207
      - 3d(8.00)    -9.141   1.138
      -  s          21.353   1.164
      -  d          18.071   1.138
  
    # Using partial waves for Ni as LCAO basis

  I:
    name: Iodine
    id: b559721c0c096a7b4c8fc0e0f4de5cf4
    Z: 53.0
    valence: 7
    core: 46
    charge: 0.0
    file: /zhome/86/d/1666/PAW/gpaw-setups-0.9.20000/I.LDA.gz
    compensation charges: {type: gauss,
                           rc: 0.37,
                           lmax: 2}
    cutoffs: {filter: 2.06,
              core: 2.90}
    valence states:
      #              energy  rcut
      - 5s(2.00)   -17.626   1.164
      - 5p(5.00)    -7.241   1.164
      -  s           9.585   1.164
      -  p          19.970   1.164
      -  d           0.000   1.164
  
    # Using partial waves for I as LCAO basis

Reference energy: -428067.566327  # eV

eigensolver:
  name: 'Davidson'
  niter: 2
  converge_bands: 'occupied'
Density mixing:
  Method: sum
  Backend: pulay
  Linear mixing parameter: 0.05
  old densities: 5
  Damping of long wavelength oscillations: 100
occupation numbers:
  Fermi-Dirac:
    width: 0.1000  # eV
  

poisson solver:
  ecut: 6400.0  # eV

xc functional:
  name: None

convergence criteria:
- Maximum [total energy] change in last 3 cyles: 0.0005 eV / valence electron
- Maximum integral of absolute [dens]ity change: 0.0001 electrons / valence electron
- Maximum integral of absolute [eigenst]ate change: 4e-08 eV^2 / valence electron
maximum number of iterations: 333

#      iter     time        total  log10-change:
#                          energy   eigst   dens
# iter:   1 11:12:31   -13.771654                  +1.7,+0.0,+0.0
# iter:   2 11:13:02   -12.665353   -0.34  -1.32   +1.5,-0.0,-0.0
# iter:   3 11:13:33   -12.252834   -0.69  -1.46   +1.5,-0.0,-0.0
# iter:   4 11:14:03   -12.318131   -1.39  -1.68   +1.5,-0.0,-0.0
# iter:   5 11:14:34   -12.505119   -1.55  -1.66   +1.6,+0.0,-0.0
# iter:   6 11:15:05   -12.339175   -1.80  -1.81   +1.6,+0.0,-0.0
# iter:   7 11:15:36   -12.320986   -2.12  -2.15   +1.6,+0.0,-0.0
# iter:   8 11:16:07   -12.313549   -2.37  -2.33   +1.6,+0.0,-0.0
# iter:   9 11:16:38   -12.314208c  -2.54  -2.66   +1.7,+0.0,+0.0
# iter:  10 11:17:09   -12.316145c  -2.82  -3.01   +1.6,+0.0,+0.0
# iter:  11 11:17:40   -12.316112c  -3.03  -2.89   +1.7,+0.0,+0.0
# iter:  12 11:18:11   -12.314634c  -3.17  -2.97   +1.7,+0.0,+0.0
# iter:  13 11:18:42   -12.314581c  -3.37  -3.61   +1.7,+0.0,+0.0
# iter:  14 11:19:13   -12.314624c  -3.55  -3.88   +1.7,+0.0,+0.0
# iter:  15 11:19:44   -12.315103c  -3.71  -3.92   +1.7,+0.0,-0.0
# iter:  16 11:20:15   -12.315111c  -3.87  -3.87   +1.7,+0.0,+0.0
# iter:  17 11:20:46   -12.315168c  -4.02  -4.30c  +1.7,+0.0,+0.0
# iter:  18 11:21:17   -12.315251c  -4.17  -4.49c  +1.7,+0.0,+0.0
# iter:  19 11:21:47   -12.315233c  -4.31  -4.36c  +1.7,+0.0,+0.0
# iter:  20 11:22:18   -12.315290c  -4.46  -4.39c  +1.7,+0.0,+0.0
# iter:  21 11:22:49   -12.315321c  -4.61  -4.75c  +1.7,+0.0,+0.0
# iter:  22 11:23:20   -12.315347c  -4.76  -4.84c  +1.7,+0.0,+0.0
# iter:  23 11:23:50   -12.315359c  -4.90  -4.99c  +1.7,+0.0,+0.0
# iter:  24 11:24:21   -12.315380c  -5.04  -5.08c  +1.7,+0.0,+0.0
# iter:  25 11:24:52   -12.315374c  -5.19  -5.20c  +1.7,+0.0,+0.0
# iter:  26 11:25:23   -12.315376c  -5.33  -5.53c  +1.7,+0.0,+0.0
# iter:  27 11:25:53   -12.315378c  -5.48  -5.56c  +1.7,+0.0,+0.0
# iter:  28 11:26:24   -12.315381c  -5.62  -5.61c  +1.7,+0.0,+0.0
# iter:  29 11:26:55   -12.315380c  -5.76  -5.79c  +1.7,+0.0,+0.0
# iter:  30 11:27:26   -12.315380c  -5.91  -5.87c  +1.7,+0.0,+0.0
# iter:  31 11:27:57   -12.315381c  -6.06  -5.90c  +1.7,+0.0,+0.0
# iter:  32 11:28:28   -12.315381c  -6.20  -5.94c  +1.7,+0.0,+0.0
# iter:  33 11:28:58   -12.315381c  -6.36  -5.97c  +1.7,+0.0,+0.0
# iter:  34 11:29:29   -12.315381c  -6.51  -5.98c  +1.7,+0.0,+0.0
# iter:  35 11:30:00   -12.315382c  -6.66  -5.95c  +1.7,+0.0,+0.0
# iter:  36 11:30:31   -12.315382c  -6.80  -5.99c  +1.7,+0.0,+0.0
# iter:  37 11:31:01   -12.315381c  -6.94  -5.98c  +1.7,+0.0,+0.0
# iter:  38 11:31:32   -12.315380c  -7.09  -6.02c  +1.7,+0.0,+0.0
# iter:  39 11:32:03   -12.315380c  -7.23  -6.03c  +1.7,+0.0,+0.0
# iter:  40 11:32:33   -12.315381c  -7.38  -6.03c  +1.7,+0.0,+0.0
# iter:  41 11:33:04   -12.315383c  -7.52c -6.02c  +1.7,+0.0,+0.0
scf_steps: 41
energies:  # eV
  coulomb:          -7.767887
  zero:              0.067469
  xc:              -14.921426
  external:          0.000000
  kinetic:          10.326042
  spinorbit:         0.000000
  entropy:          -0.039161
  total:           -12.334964
  extrapolated:    -12.315383

dipole moment: [-4.106725, -7.112513, -5.316665]  # |e|*Ang

total magnetic moment: [1.682892, 0.015758, 0.000000]

local magnetic moments: [
  [ 1.139408, -0.006652,  0.000000],  # Ni 0
  [ 0.126715, -0.094142,  0.000000],  # I  1
  [ 0.126705, -0.094156,  0.000000]]  # I  2


Fermi level: -1.184 eV

kpt = [-0.467, -0.467, 0.000], weight = 0.004:
  Band      eig [eV]   occ [0-1]
     0       -64.964       1.000
   ...
    22        -3.113       1.000
    23        -2.978       1.000
    24        -2.896       1.000
    25        -2.292       1.000
    26        -2.155       1.000
    27        -2.129       1.000
    28        -1.648       0.990
    29        -1.623       0.988
    30        -0.693       0.007
    31        -0.691       0.007
    32         1.598       0.000
    33         2.265       0.000
    34         3.678       0.000
    35         4.574       0.000
    36         4.609       0.000
    37         4.681       0.000
   ...
    39         5.134       0.000

kpt = [-0.467, -0.400, 0.000], weight = 0.004:
  Band      eig [eV]   occ [0-1]
     0       -64.964       1.000
   ...
    22        -3.090       1.000
    23        -2.954       1.000
    24        -2.884       1.000
    25        -2.292       1.000
    26        -2.147       1.000
    27        -2.108       1.000
    28        -1.747       0.996
    29        -1.633       0.989
    30        -0.751       0.013
    31        -0.694       0.007
    32         1.618       0.000
    33         2.536       0.000
    34         3.684       0.000
    35         4.487       0.000
    36         4.607       0.000
    37         4.772       0.000
   ...
    39         5.908       0.000

kpt = [-0.467, -0.333, 0.000], weight = 0.004:
  Band      eig [eV]   occ [0-1]
     0       -64.964       1.000
   ...
    22        -3.035       1.000
    23        -2.939       1.000
    24        -2.793       1.000
    25        -2.292       1.000
    26        -2.148       1.000
    27        -2.087       1.000
    28        -1.823       0.998
    29        -1.628       0.988
    30        -0.887       0.049
    31        -0.721       0.010
    32         1.938       0.000
    33         2.618       0.000
    34         4.106       0.000
    35         4.497       0.000
    36         4.604       0.000
    37         4.943       0.000
   ...
    39         5.618       0.000
(only showing first 3 out of 225 k-points)

Gap: 0.182 eV
Transition (v -> c):
  (s=0, k=112, n=29, [0.00, 0.00, 0.00]) -> (s=0, k=48, n=30, [-0.27, -0.27, 0.00])
# Writing to Band_Conv/gsq-87.gpw (mode='')

---

timing:  # [seconds]
  Total: 3850.807  # ━━━━━━━━━━━━━━━━━━━━━━━━━━━━━━━━━━━━━━━━━━━━━━━━━━━━━━━━
  Init:    18.108  # ╸
  SCF:   1262.294  # ━━━━━━━━━━━━━━━━━━╸

Max RSS: 4317.410  # MiB
