#  __  _  _
# | _ |_)|_||  |
# |__||  | ||/\| - 24.1.0

User:   s194113@n-62-29-10
Date:   Tue May  7 07:43:32 2024
Arch:   x86_64
Pid:    14705
CWD:    /work3/s194113/10302/10302_NM/NiI2
Python: 3.8.5
gpaw:   /zhome/87/8/147075/venv-name/gpaw/gpaw (10808453a8)
_gpaw:  /zhome/87/8/147075/venv-name/gpaw/
        _gpaw.cpython-38-x86_64-linux-gnu.so (10808453a8)
ase:    /zhome/87/8/147075/venv-name/ase/ase (version 3.23.0b1-c36115a2db)
numpy:  /zhome/87/8/147075/venv-name/lib/python3.8/site-packages/numpy (version 1.24.4)
scipy:  /zhome/87/8/147075/venv-name/lib/python3.8/site-packages/scipy (version 1.10.1)
libxc:  4.3.4
units:  Angstrom and eV
cores: 18
OpenMP: False
OMP_NUM_THREADS: 1

---
input parameters:
  kpts: 
    density: 8.0
    gamma: True
  magmoms: [[1.28782608, 0, 0], [0.19870794, 0, 0], [0.19870794, 0, 0]]
  mixer: 
    backend: 'pulay'
    beta: 0.05
    method: 'sum'
    nmaxold: 5
    weight: 100
  mode: 
    name: 'pw'
    ecut: 800.0
    qspiral: array([0.17054264, 0.17054264, 0.        ])
  parallel: 
    kpt: None
    domain: 1
    band: 1
    order: 'kdb'
    stridebands: False
    augment_grids: False
    sl_auto: False
    sl_default: None
    sl_diagonalize: None
    sl_inverse_cholesky: None
    sl_lcao: None
    sl_lrtddft: None
    use_elpa: False
    elpasolver: '2stage'
    buffer_size: None
    gpu: False
  symmetry: 
    point_group: False
    time_reversal: False
  xc: 
    name: 'LDA'

#                        
#                        
#                        
#                        
#                        
#              I         
#                        
#        Ni              
#          I             
#                        
#                        
#                        
#                        
#                        

atoms: [  # symbols, positions [Ang] and initial magnetic moments
  [ Ni, [   0.000000,    0.000000,    7.513573], [ 1.288,  0.000,  0.000]], # 0
  [  I, [   1.984831,    1.145943,    9.027147], [ 0.199,  0.000,  0.000]], # 1
  [  I, [   0.000000,    2.291885,    6.000000], [ 0.199,  0.000,  0.000]]] # 2

cell: [  # Ang
#     x            y            z
  [   3.969662,    0.000000,    0.000000],
  [  -1.984831,    3.437828,    0.000000],
  [   0.000000,    0.000000,   15.027147]]

periodic: [True      , True      , False     ]
lengths:  [  3.969662,   3.969662,  15.027147]  # Ang
angles:   [ 90.000000,  90.000000, 120.000000]

symmetry:
  number of symmetries: 1
  rotations: [
    [[ 1,  0,  0], [ 0,  1,  0], [ 0,  0,  1]]]

bz sampling:
  number of bz points: 225
  number of ibz points: 225
  monkhorst-pack size: [15, 15, 1]
  monkhorst-pack shift: [0, 0, 0]
  points and weights: [
    [[ -0.46666667,  -0.46666667,   0.00000000], 0.00444444],  # 0
    [[ -0.46666667,  -0.40000000,   0.00000000], 0.00444444],  # 1
    [[ -0.46666667,  -0.33333333,   0.00000000], 0.00444444],  # 2
    [[ -0.46666667,  -0.26666667,   0.00000000], 0.00444444],  # 3
    [[ -0.46666667,  -0.20000000,   0.00000000], 0.00444444],  # 4
    [[ -0.46666667,  -0.13333333,   0.00000000], 0.00444444],  # 5
    [[ -0.46666667,  -0.06666667,   0.00000000], 0.00444444],  # 6
    [[ -0.46666667,   0.00000000,   0.00000000], 0.00444444],  # 7
    [[ -0.46666667,   0.06666667,   0.00000000], 0.00444444],  # 8
    [[ -0.46666667,   0.13333333,   0.00000000], 0.00444444],  # 9
    # ...
    [[  0.46666667,   0.46666667,   0.00000000], 0.00444444]]  # 224

plane wave coefficients: 10580
cutoff: 800.0 eV

spin-components: 4  # (non-collinear spins)
bands: 40
valence electrons: 30.0
spin-degeneracy: 1
dtype: complex128

memory:
    wave functions: 3_041_856_000  # bytes  (168_992_000 per core)

parallelization:
    kpt:    18
    domain: 1
    band:   1

density:
  components: 4
  grid points: [ 27  27 100]
  charge: 0.0  # |e|

potential:
  grid points: [ 27  27 100]

species:
  Ni:
    name: Nickel
    id: 1802175e8de9ea26d9f4394ec1a7d564
    Z: 28.0
    valence: 16
    core: 12
    charge: 0.0
    file: /zhome/86/d/1666/PAW/gpaw-setups-0.9.20000/Ni.LDA.gz
    compensation charges: {type: gauss,
                           rc: 0.36,
                           lmax: 2}
    cutoffs: {filter: 2.14,
              core: 1.98}
    valence states:
      #              energy  rcut
      - 4s(2.00)    -5.858   1.164
      - 3p(6.00)   -71.266   1.207
      - 4p(0.00)    -1.338   1.207
      - 3d(8.00)    -9.141   1.138
      -  s          21.353   1.164
      -  d          18.071   1.138
  
    # Using partial waves for Ni as LCAO basis

  I:
    name: Iodine
    id: b559721c0c096a7b4c8fc0e0f4de5cf4
    Z: 53.0
    valence: 7
    core: 46
    charge: 0.0
    file: /zhome/86/d/1666/PAW/gpaw-setups-0.9.20000/I.LDA.gz
    compensation charges: {type: gauss,
                           rc: 0.37,
                           lmax: 2}
    cutoffs: {filter: 2.06,
              core: 2.90}
    valence states:
      #              energy  rcut
      - 5s(2.00)   -17.626   1.164
      - 5p(5.00)    -7.241   1.164
      -  s           9.585   1.164
      -  p          19.970   1.164
      -  d           0.000   1.164
  
    # Using partial waves for I as LCAO basis

Reference energy: -428067.566327  # eV

eigensolver:
  name: 'Davidson'
  niter: 2
  converge_bands: 'occupied'
Density mixing:
  Method: sum
  Backend: pulay
  Linear mixing parameter: 0.05
  old densities: 5
  Damping of long wavelength oscillations: 100
occupation numbers:
  Fermi-Dirac:
    width: 0.1000  # eV
  

poisson solver:
  ecut: 6400.0  # eV

xc functional:
  name: None

convergence criteria:
- Maximum [total energy] change in last 3 cyles: 0.0005 eV / valence electron
- Maximum integral of absolute [dens]ity change: 0.0001 electrons / valence electron
- Maximum integral of absolute [eigenst]ate change: 4e-08 eV^2 / valence electron
maximum number of iterations: 333

#      iter     time        total  log10-change:
#                          energy   eigst   dens
# iter:   1 07:44:19   -13.555893                  +1.7,+0.0,+0.0
# iter:   2 07:44:51   -12.626977   -0.06  -1.31   +1.3,-0.0,+0.0
# iter:   3 07:45:22   -12.243809   -0.55  -1.46   +1.3,-0.0,+0.0
# iter:   4 07:45:53   -12.322150   -1.19  -1.68   +1.4,-0.0,+0.0
# iter:   5 07:46:25   -12.498373   -1.38  -1.66   +1.4,+0.0,-0.0
# iter:   6 07:46:55   -12.330959   -1.60  -1.81   +1.4,+0.0,-0.0
# iter:   7 07:47:26   -12.321577   -1.88  -2.19   +1.4,+0.0,+0.0
# iter:   8 07:47:58   -12.311370   -2.06  -2.33   +1.4,+0.0,-0.0
# iter:   9 07:48:29   -12.312889c  -2.25  -2.79   +1.4,+0.0,-0.0
# iter:  10 07:49:00   -12.313228c  -2.46  -3.00   +1.4,+0.0,-0.0
# iter:  11 07:49:31   -12.312949c  -2.59  -3.04   +1.5,+0.0,+0.0
# iter:  12 07:50:02   -12.313223c  -2.78  -3.25   +1.5,+0.0,-0.0
# iter:  13 07:50:33   -12.313362c  -2.93  -3.77   +1.5,+0.0,-0.0
# iter:  14 07:51:05   -12.313394c  -3.07  -3.90   +1.5,+0.0,-0.0
# iter:  15 07:51:36   -12.313524c  -3.21  -3.94   +1.5,+0.0,+0.0
# iter:  16 07:52:07   -12.313718c  -3.34  -4.03c  +1.5,+0.0,+0.0
# iter:  17 07:52:38   -12.313878c  -3.48  -4.00   +1.5,+0.0,-0.0
# iter:  18 07:53:09   -12.313908c  -3.62  -4.30c  +1.5,+0.0,-0.0
# iter:  19 07:53:39   -12.313919c  -3.76  -4.45c  +1.5,+0.0,-0.0
# iter:  20 07:54:10   -12.313955c  -3.90  -4.51c  +1.5,+0.0,-0.0
# iter:  21 07:54:41   -12.314003c  -4.04  -4.45c  +1.5,+0.0,-0.0
# iter:  22 07:55:12   -12.313956c  -4.18  -4.54c  +1.5,+0.0,-0.0
# iter:  23 07:55:43   -12.314004c  -4.31  -4.53c  +1.5,+0.0,-0.0
# iter:  24 07:56:14   -12.314041c  -4.45  -4.63c  +1.5,+0.0,-0.0
# iter:  25 07:56:45   -12.314067c  -4.59  -4.66c  +1.5,+0.0,-0.0
# iter:  26 07:57:16   -12.314077c  -4.72  -4.73c  +1.5,+0.0,-0.0
# iter:  27 07:57:47   -12.314075c  -4.86  -4.76c  +1.5,+0.0,-0.0
# iter:  28 07:58:18   -12.314077c  -5.00  -5.04c  +1.5,+0.0,-0.0
# iter:  29 07:58:49   -12.314083c  -5.13  -5.28c  +1.5,+0.0,-0.0
# iter:  30 07:59:20   -12.314090c  -5.27  -5.32c  +1.5,+0.0,-0.0
# iter:  31 07:59:51   -12.314088c  -5.40  -5.37c  +1.5,+0.0,-0.0
# iter:  32 08:00:22   -12.314088c  -5.54  -5.45c  +1.5,+0.0,-0.0
# iter:  33 08:00:53   -12.314087c  -5.67  -5.49c  +1.5,+0.0,-0.0
# iter:  34 08:01:24   -12.314087c  -5.80  -5.51c  +1.5,+0.0,-0.0
# iter:  35 08:01:55   -12.314086c  -5.94  -5.58c  +1.5,+0.0,-0.0
# iter:  36 08:02:26   -12.314083c  -6.08  -5.63c  +1.5,+0.0,-0.0
# iter:  37 08:02:57   -12.314083c  -6.22  -5.74c  +1.5,+0.0,-0.0
# iter:  38 08:03:28   -12.314085c  -6.36  -5.74c  +1.5,+0.0,-0.0
# iter:  39 08:04:00   -12.314084c  -6.50  -5.73c  +1.5,+0.0,-0.0
# iter:  40 08:04:31   -12.314085c  -6.64  -5.82c  +1.5,+0.0,-0.0
# iter:  41 08:05:02   -12.314087c  -6.78  -5.87c  +1.5,+0.0,-0.0
# iter:  42 08:05:33   -12.314087c  -6.93  -5.97c  +1.5,+0.0,-0.0
# iter:  43 08:06:05   -12.314087c  -7.08  -6.28c  +1.5,+0.0,-0.0
# iter:  44 08:06:36   -12.314087c  -7.22  -6.33c  +1.5,+0.0,-0.0
# iter:  45 08:07:08   -12.314087c  -7.36  -6.45c  +1.5,+0.0,-0.0
# iter:  46 08:07:40   -12.314087c  -7.50c -6.56c  +1.5,+0.0,-0.0
scf_steps: 46
energies:  # eV
  coulomb:          -7.639261
  zero:              0.067659
  xc:              -14.892035
  external:          0.000000
  kinetic:          10.168065
  spinorbit:         0.000000
  entropy:          -0.037032
  total:           -12.332603
  extrapolated:    -12.314087

dipole moment: [-3.901790, -6.757313, -3.735543]  # |e|*Ang

total magnetic moment: [1.477855, 0.018054, -0.000000]

local magnetic moments: [
  [ 1.126822, -0.007247, -0.000000],  # Ni 0
  [ 0.054610, -0.101638, -0.000000],  # I  1
  [ 0.054564, -0.101662, -0.000000]]  # I  2


Fermi level: -1.186 eV

kpt = [-0.467, -0.467, 0.000], weight = 0.004:
  Band      eig [eV]   occ [0-1]
     0       -64.952       1.000
   ...
    22        -3.060       1.000
    23        -2.917       1.000
    24        -2.822       1.000
    25        -2.286       1.000
    26        -2.144       1.000
    27        -2.104       1.000
    28        -1.786       0.998
    29        -1.661       0.991
    30        -0.854       0.035
    31        -0.753       0.013
    32         1.882       0.000
    33         2.523       0.000
    34         4.133       0.000
    35         4.741       0.000
    36         4.775       0.000
    37         4.781       0.000
   ...
    39         5.397       0.000

kpt = [-0.467, -0.400, 0.000], weight = 0.004:
  Band      eig [eV]   occ [0-1]
     0       -64.952       1.000
   ...
    22        -3.051       1.000
    23        -2.903       1.000
    24        -2.887       1.000
    25        -2.339       1.000
    26        -2.147       1.000
    27        -2.130       1.000
    28        -1.728       0.996
    29        -1.645       0.990
    30        -0.789       0.018
    31        -0.729       0.010
    32         1.627       0.000
    33         2.597       0.000
    34         3.697       0.000
    35         4.495       0.000
    36         4.690       0.000
    37         4.773       0.000
   ...
    39         5.904       0.000

kpt = [-0.467, -0.333, 0.000], weight = 0.004:
  Band      eig [eV]   occ [0-1]
     0       -64.952       1.000
   ...
    22        -3.013       1.000
    23        -2.923       1.000
    24        -2.846       1.000
    25        -2.396       1.000
    26        -2.146       1.000
    27        -2.142       1.000
    28        -1.732       0.996
    29        -1.556       0.976
    30        -0.844       0.032
    31        -0.686       0.007
    32         1.665       0.000
    33         2.541       0.000
    34         3.700       0.000
    35         4.409       0.000
    36         4.750       0.000
    37         4.918       0.000
   ...
    39         5.838       0.000
(only showing first 3 out of 225 k-points)

Gap: 0.386 eV
Transition (v -> c):
  (s=0, k=157, n=29, [0.20, 0.00, 0.00]) -> (s=0, k=48, n=30, [-0.27, -0.27, 0.00])
# Writing to Band_Conv/gsq-78.gpw (mode='')

---

timing:  # [seconds]
  Total: 2886.178  # ━━━━━━━━━━━━━━━━━━━━━━━━━━━━━━━━━━━━━━━━━━━━━━━━━━━━━━━━
  Init:    18.246  # ╸
  SCF:   1429.618  # ━━━━━━━━━━━━━━━━━━━━━━━━━━━╸

Max RSS: 3736.602  # MiB
