#  __  _  _
# | _ |_)|_||  |
# |__||  | ||/\| - 24.1.0

User:   s194113@n-62-29-10
Date:   Tue May  7 14:55:30 2024
Arch:   x86_64
Pid:    14705
CWD:    /work3/s194113/10302/10302_NM/NiI2
Python: 3.8.5
gpaw:   /zhome/87/8/147075/venv-name/gpaw/gpaw (10808453a8)
_gpaw:  /zhome/87/8/147075/venv-name/gpaw/
        _gpaw.cpython-38-x86_64-linux-gnu.so (10808453a8)
ase:    /zhome/87/8/147075/venv-name/ase/ase (version 3.23.0b1-c36115a2db)
numpy:  /zhome/87/8/147075/venv-name/lib/python3.8/site-packages/numpy (version 1.24.4)
scipy:  /zhome/87/8/147075/venv-name/lib/python3.8/site-packages/scipy (version 1.10.1)
libxc:  4.3.4
units:  Angstrom and eV
cores: 18
OpenMP: False
OMP_NUM_THREADS: 1

---
input parameters:
  kpts: 
    density: 8.0
    gamma: True
  magmoms: [[1.28782608, 0, 0], [0.19870794, 0, 0], [0.19870794, 0, 0]]
  mixer: 
    backend: 'pulay'
    beta: 0.05
    method: 'sum'
    nmaxold: 5
    weight: 100
  mode: 
    name: 'pw'
    ecut: 800.0
    qspiral: array([0.01550388, 0.01550388, 0.        ])
  parallel: 
    kpt: None
    domain: 1
    band: 1
    order: 'kdb'
    stridebands: False
    augment_grids: False
    sl_auto: False
    sl_default: None
    sl_diagonalize: None
    sl_inverse_cholesky: None
    sl_lcao: None
    sl_lrtddft: None
    use_elpa: False
    elpasolver: '2stage'
    buffer_size: None
    gpu: False
  symmetry: 
    point_group: False
    time_reversal: False
  xc: 
    name: 'LDA'

#                        
#                        
#                        
#                        
#                        
#              I         
#                        
#        Ni              
#          I             
#                        
#                        
#                        
#                        
#                        

atoms: [  # symbols, positions [Ang] and initial magnetic moments
  [ Ni, [   0.000000,    0.000000,    7.513573], [ 1.288,  0.000,  0.000]], # 0
  [  I, [   1.984831,    1.145943,    9.027147], [ 0.199,  0.000,  0.000]], # 1
  [  I, [   0.000000,    2.291885,    6.000000], [ 0.199,  0.000,  0.000]]] # 2

cell: [  # Ang
#     x            y            z
  [   3.969662,    0.000000,    0.000000],
  [  -1.984831,    3.437828,    0.000000],
  [   0.000000,    0.000000,   15.027147]]

periodic: [True      , True      , False     ]
lengths:  [  3.969662,   3.969662,  15.027147]  # Ang
angles:   [ 90.000000,  90.000000, 120.000000]

symmetry:
  number of symmetries: 1
  rotations: [
    [[ 1,  0,  0], [ 0,  1,  0], [ 0,  0,  1]]]

bz sampling:
  number of bz points: 225
  number of ibz points: 225
  monkhorst-pack size: [15, 15, 1]
  monkhorst-pack shift: [0, 0, 0]
  points and weights: [
    [[ -0.46666667,  -0.46666667,   0.00000000], 0.00444444],  # 0
    [[ -0.46666667,  -0.40000000,   0.00000000], 0.00444444],  # 1
    [[ -0.46666667,  -0.33333333,   0.00000000], 0.00444444],  # 2
    [[ -0.46666667,  -0.26666667,   0.00000000], 0.00444444],  # 3
    [[ -0.46666667,  -0.20000000,   0.00000000], 0.00444444],  # 4
    [[ -0.46666667,  -0.13333333,   0.00000000], 0.00444444],  # 5
    [[ -0.46666667,  -0.06666667,   0.00000000], 0.00444444],  # 6
    [[ -0.46666667,   0.00000000,   0.00000000], 0.00444444],  # 7
    [[ -0.46666667,   0.06666667,   0.00000000], 0.00444444],  # 8
    [[ -0.46666667,   0.13333333,   0.00000000], 0.00444444],  # 9
    # ...
    [[  0.46666667,   0.46666667,   0.00000000], 0.00444444]]  # 224

plane wave coefficients: 10580
cutoff: 800.0 eV

spin-components: 4  # (non-collinear spins)
bands: 40
valence electrons: 30.0
spin-degeneracy: 1
dtype: complex128

memory:
    wave functions: 3_041_856_000  # bytes  (168_992_000 per core)

parallelization:
    kpt:    18
    domain: 1
    band:   1

density:
  components: 4
  grid points: [ 27  27 100]
  charge: 0.0  # |e|

potential:
  grid points: [ 27  27 100]

species:
  Ni:
    name: Nickel
    id: 1802175e8de9ea26d9f4394ec1a7d564
    Z: 28.0
    valence: 16
    core: 12
    charge: 0.0
    file: /zhome/86/d/1666/PAW/gpaw-setups-0.9.20000/Ni.LDA.gz
    compensation charges: {type: gauss,
                           rc: 0.36,
                           lmax: 2}
    cutoffs: {filter: 2.14,
              core: 1.98}
    valence states:
      #              energy  rcut
      - 4s(2.00)    -5.858   1.164
      - 3p(6.00)   -71.266   1.207
      - 4p(0.00)    -1.338   1.207
      - 3d(8.00)    -9.141   1.138
      -  s          21.353   1.164
      -  d          18.071   1.138
  
    # Using partial waves for Ni as LCAO basis

  I:
    name: Iodine
    id: b559721c0c096a7b4c8fc0e0f4de5cf4
    Z: 53.0
    valence: 7
    core: 46
    charge: 0.0
    file: /zhome/86/d/1666/PAW/gpaw-setups-0.9.20000/I.LDA.gz
    compensation charges: {type: gauss,
                           rc: 0.37,
                           lmax: 2}
    cutoffs: {filter: 2.06,
              core: 2.90}
    valence states:
      #              energy  rcut
      - 5s(2.00)   -17.626   1.164
      - 5p(5.00)    -7.241   1.164
      -  s           9.585   1.164
      -  p          19.970   1.164
      -  d           0.000   1.164
  
    # Using partial waves for I as LCAO basis

Reference energy: -428067.566327  # eV

eigensolver:
  name: 'Davidson'
  niter: 2
  converge_bands: 'occupied'
Density mixing:
  Method: sum
  Backend: pulay
  Linear mixing parameter: 0.05
  old densities: 5
  Damping of long wavelength oscillations: 100
occupation numbers:
  Fermi-Dirac:
    width: 0.1000  # eV
  

poisson solver:
  ecut: 6400.0  # eV

xc functional:
  name: None

convergence criteria:
- Maximum [total energy] change in last 3 cyles: 0.0005 eV / valence electron
- Maximum integral of absolute [dens]ity change: 0.0001 electrons / valence electron
- Maximum integral of absolute [eigenst]ate change: 4e-08 eV^2 / valence electron
maximum number of iterations: 333

#      iter     time        total  log10-change:
#                          energy   eigst   dens
# iter:   1 14:56:17   -13.879440                  +1.7,+0.0,+0.0
# iter:   2 14:56:49   -12.664679   -0.52  -1.32   +1.5,-0.0,-0.0
# iter:   3 14:57:20   -12.238669   -0.73  -1.46   +1.5,-0.0,+0.0
# iter:   4 14:57:52   -12.299929   -1.27  -1.68   +1.6,-0.0,+0.0
# iter:   5 14:58:24   -12.500638   -1.46  -1.65   +1.6,+0.0,-0.0
# iter:   6 14:58:55   -12.297941   -1.67  -1.78   +1.7,+0.0,-0.0
# iter:   7 14:59:27   -12.286974   -2.03  -2.21   +1.7,+0.0,-0.0
# iter:   8 14:59:58   -12.301154c  -2.28  -2.36   +1.7,+0.0,-0.0
# iter:   9 15:00:30   -12.286750c  -2.39  -2.29   +1.8,+0.0,-0.0
# iter:  10 15:01:01   -12.287327c  -2.72  -2.93   +1.8,+0.0,-0.0
# iter:  11 15:01:33   -12.287180c  -2.94  -3.03   +1.8,+0.0,-0.0
# iter:  12 15:02:04   -12.290541c  -3.06  -2.95   +1.8,+0.0,-0.0
# iter:  13 15:02:36   -12.290163c  -3.31  -3.15   +1.8,+0.0,+0.0
# iter:  14 15:03:07   -12.289927c  -3.49  -3.32   +1.8,+0.0,+0.0
# iter:  15 15:03:38   -12.289577c  -3.65  -3.49   +1.8,+0.0,+0.0
# iter:  16 15:04:09   -12.289941c  -3.83  -3.64   +1.8,+0.0,+0.0
# iter:  17 15:04:40   -12.289908c  -4.00  -3.64   +1.8,+0.0,+0.0
# iter:  18 15:05:12   -12.289916c  -4.16  -3.72   +1.8,+0.0,+0.0
# iter:  19 15:05:43   -12.289995c  -4.33  -3.81   +1.8,+0.0,+0.0
# iter:  20 15:06:14   -12.290088c  -4.49  -3.84   +1.8,+0.0,+0.0
# iter:  21 15:06:45   -12.290171c  -4.69  -3.87   +1.8,+0.0,+0.0
# iter:  22 15:07:16   -12.290295c  -4.84  -3.87   +1.8,+0.0,+0.0
# iter:  23 15:07:48   -12.290339c  -5.01  -3.88   +1.8,+0.0,+0.0
# iter:  24 15:08:19   -12.290543c  -5.17  -3.90   +1.8,+0.0,+0.0
# iter:  25 15:08:50   -12.290536c  -5.36  -3.95   +1.8,+0.0,+0.0
# iter:  26 15:09:22   -12.290928c  -5.09  -4.00   +1.8,+0.0,-0.0
# iter:  27 15:09:53   -12.290966c  -5.63  -4.00   +1.8,+0.0,+0.0
# iter:  28 15:10:24   -12.290985c  -5.91  -4.27c  +1.8,+0.0,+0.0
# iter:  29 15:10:55   -12.291103c  -6.00  -4.33c  +1.8,+0.0,-0.0
# iter:  30 15:11:26   -12.291135c  -6.25  -4.41c  +1.8,+0.0,-0.0
# iter:  31 15:11:58   -12.291119c  -6.41  -4.47c  +1.8,+0.0,+0.0
# iter:  32 15:12:29   -12.291154c  -6.57  -4.78c  +1.8,+0.0,+0.0
# iter:  33 15:13:00   -12.291154c  -6.74  -4.87c  +1.8,+0.0,+0.0
# iter:  34 15:13:31   -12.291149c  -6.93  -5.13c  +1.8,+0.0,+0.0
# iter:  35 15:14:02   -12.291131c  -7.09  -5.26c  +1.8,+0.0,+0.0
# iter:  36 15:14:34   -12.291133c  -7.26  -5.37c  +1.8,+0.0,+0.0
# iter:  37 15:15:05   -12.291130c  -7.42c -5.36c  +1.8,+0.0,+0.0
scf_steps: 37
energies:  # eV
  coulomb:          -8.086116
  zero:              0.067118
  xc:              -14.963531
  external:          0.000000
  kinetic:          10.718315
  spinorbit:         0.000000
  entropy:          -0.053832
  total:           -12.318046
  extrapolated:    -12.291130

dipole moment: [-4.242724, -7.348513, -6.409327]  # |e|*Ang

total magnetic moment: [1.816649, 0.003036, 0.000000]

local magnetic moments: [
  [ 1.146952, -0.001191,  0.000000],  # Ni 0
  [ 0.182483, -0.018026, -0.000000],  # I  1
  [ 0.182483, -0.018023, -0.000000]]  # I  2


Fermi level: -1.182 eV

kpt = [-0.467, -0.467, 0.000], weight = 0.004:
  Band      eig [eV]   occ [0-1]
     0       -64.978       1.000
   ...
    22        -3.168       1.000
    23        -3.023       1.000
    24        -2.924       1.000
    25        -2.322       1.000
    26        -2.171       1.000
    27        -2.140       1.000
    28        -1.607       0.986
    29        -1.494       0.958
    30        -0.661       0.005
    31        -0.611       0.003
    32         1.597       0.000
    33         1.858       0.000
    34         3.744       0.000
    35         3.985       0.000
    36         4.548       0.000
    37         4.637       0.000
   ...
    39         4.784       0.000

kpt = [-0.467, -0.400, 0.000], weight = 0.004:
  Band      eig [eV]   occ [0-1]
     0       -64.978       1.000
   ...
    22        -3.092       1.000
    23        -2.985       1.000
    24        -2.842       1.000
    25        -2.258       1.000
    26        -2.154       1.000
    27        -2.085       1.000
    28        -1.750       0.997
    29        -1.621       0.988
    30        -0.814       0.025
    31        -0.678       0.006
    32         1.945       0.000
    33         2.229       0.000
    34         4.247       0.000
    35         4.500       0.000
    36         4.724       0.000
    37         4.854       0.000
   ...
    39         5.084       0.000

kpt = [-0.467, -0.333, 0.000], weight = 0.004:
  Band      eig [eV]   occ [0-1]
     0       -64.978       1.000
   ...
    22        -3.061       1.000
    23        -2.946       1.000
    24        -2.759       1.000
    25        -2.233       1.000
    26        -2.145       1.000
    27        -2.019       1.000
    28        -1.970       1.000
    29        -1.653       0.991
    30        -0.990       0.128
    31        -0.705       0.008
    32         2.347       0.000
    33         2.598       0.000
    34         4.360       0.000
    35         4.492       0.000
    36         5.032       0.000
    37         5.232       0.000
   ...
    39         5.575       0.000
(only showing first 3 out of 225 k-points)

No gap
# Writing to Band_Conv/gsq-98.gpw (mode='')

