#  __  _  _
# | _ |_)|_||  |
# |__||  | ||/\| - 24.1.0

User:   s194113@n-62-29-10
Date:   Mon May  6 09:34:32 2024
Arch:   x86_64
Pid:    14705
CWD:    /work3/s194113/10302/10302_NM/NiI2
Python: 3.8.5
gpaw:   /zhome/87/8/147075/venv-name/gpaw/gpaw (10808453a8)
_gpaw:  /zhome/87/8/147075/venv-name/gpaw/
        _gpaw.cpython-38-x86_64-linux-gnu.so (10808453a8)
ase:    /zhome/87/8/147075/venv-name/ase/ase (version 3.23.0b1-c36115a2db)
numpy:  /zhome/87/8/147075/venv-name/lib/python3.8/site-packages/numpy (version 1.24.4)
scipy:  /zhome/87/8/147075/venv-name/lib/python3.8/site-packages/scipy (version 1.10.1)
libxc:  4.3.4
units:  Angstrom and eV
cores: 18
OpenMP: False
OMP_NUM_THREADS: 1

---
input parameters:
  kpts: 
    density: 8.0
    gamma: True
  magmoms: [[1.28782608, 0, 0], [0.19870794, 0, 0], [0.19870794, 0, 0]]
  mixer: 
    backend: 'pulay'
    beta: 0.05
    method: 'sum'
    nmaxold: 5
    weight: 100
  mode: 
    name: 'pw'
    ecut: 800.0
    qspiral: array([0.375, 0.   , 0.   ])
  parallel: 
    kpt: None
    domain: 1
    band: 1
    order: 'kdb'
    stridebands: False
    augment_grids: False
    sl_auto: False
    sl_default: None
    sl_diagonalize: None
    sl_inverse_cholesky: None
    sl_lcao: None
    sl_lrtddft: None
    use_elpa: False
    elpasolver: '2stage'
    buffer_size: None
    gpu: False
  symmetry: 
    point_group: False
    time_reversal: False
  xc: 
    name: 'LDA'

#                        
#                        
#                        
#                        
#                        
#              I         
#                        
#        Ni              
#          I             
#                        
#                        
#                        
#                        
#                        

atoms: [  # symbols, positions [Ang] and initial magnetic moments
  [ Ni, [   0.000000,    0.000000,    7.513573], [ 1.288,  0.000,  0.000]], # 0
  [  I, [   1.984831,    1.145943,    9.027147], [ 0.199,  0.000,  0.000]], # 1
  [  I, [   0.000000,    2.291885,    6.000000], [ 0.199,  0.000,  0.000]]] # 2

cell: [  # Ang
#     x            y            z
  [   3.969662,    0.000000,    0.000000],
  [  -1.984831,    3.437828,    0.000000],
  [   0.000000,    0.000000,   15.027147]]

periodic: [True      , True      , False     ]
lengths:  [  3.969662,   3.969662,  15.027147]  # Ang
angles:   [ 90.000000,  90.000000, 120.000000]

symmetry:
  number of symmetries: 1
  rotations: [
    [[ 1,  0,  0], [ 0,  1,  0], [ 0,  0,  1]]]

bz sampling:
  number of bz points: 225
  number of ibz points: 225
  monkhorst-pack size: [15, 15, 1]
  monkhorst-pack shift: [0, 0, 0]
  points and weights: [
    [[ -0.46666667,  -0.46666667,   0.00000000], 0.00444444],  # 0
    [[ -0.46666667,  -0.40000000,   0.00000000], 0.00444444],  # 1
    [[ -0.46666667,  -0.33333333,   0.00000000], 0.00444444],  # 2
    [[ -0.46666667,  -0.26666667,   0.00000000], 0.00444444],  # 3
    [[ -0.46666667,  -0.20000000,   0.00000000], 0.00444444],  # 4
    [[ -0.46666667,  -0.13333333,   0.00000000], 0.00444444],  # 5
    [[ -0.46666667,  -0.06666667,   0.00000000], 0.00444444],  # 6
    [[ -0.46666667,   0.00000000,   0.00000000], 0.00444444],  # 7
    [[ -0.46666667,   0.06666667,   0.00000000], 0.00444444],  # 8
    [[ -0.46666667,   0.13333333,   0.00000000], 0.00444444],  # 9
    # ...
    [[  0.46666667,   0.46666667,   0.00000000], 0.00444444]]  # 224

plane wave coefficients: 10580
cutoff: 800.0 eV

spin-components: 4  # (non-collinear spins)
bands: 40
valence electrons: 30.0
spin-degeneracy: 1
dtype: complex128

memory:
    wave functions: 3_041_856_000  # bytes  (168_992_000 per core)

parallelization:
    kpt:    18
    domain: 1
    band:   1

density:
  components: 4
  grid points: [ 27  27 100]
  charge: 0.0  # |e|

potential:
  grid points: [ 27  27 100]

species:
  Ni:
    name: Nickel
    id: 1802175e8de9ea26d9f4394ec1a7d564
    Z: 28.0
    valence: 16
    core: 12
    charge: 0.0
    file: /zhome/86/d/1666/PAW/gpaw-setups-0.9.20000/Ni.LDA.gz
    compensation charges: {type: gauss,
                           rc: 0.36,
                           lmax: 2}
    cutoffs: {filter: 2.14,
              core: 1.98}
    valence states:
      #              energy  rcut
      - 4s(2.00)    -5.858   1.164
      - 3p(6.00)   -71.266   1.207
      - 4p(0.00)    -1.338   1.207
      - 3d(8.00)    -9.141   1.138
      -  s          21.353   1.164
      -  d          18.071   1.138
  
    # Using partial waves for Ni as LCAO basis

  I:
    name: Iodine
    id: b559721c0c096a7b4c8fc0e0f4de5cf4
    Z: 53.0
    valence: 7
    core: 46
    charge: 0.0
    file: /zhome/86/d/1666/PAW/gpaw-setups-0.9.20000/I.LDA.gz
    compensation charges: {type: gauss,
                           rc: 0.37,
                           lmax: 2}
    cutoffs: {filter: 2.06,
              core: 2.90}
    valence states:
      #              energy  rcut
      - 5s(2.00)   -17.626   1.164
      - 5p(5.00)    -7.241   1.164
      -  s           9.585   1.164
      -  p          19.970   1.164
      -  d           0.000   1.164
  
    # Using partial waves for I as LCAO basis

Reference energy: -428067.566327  # eV

eigensolver:
  name: 'Davidson'
  niter: 2
  converge_bands: 'occupied'
Density mixing:
  Method: sum
  Backend: pulay
  Linear mixing parameter: 0.05
  old densities: 5
  Damping of long wavelength oscillations: 100
occupation numbers:
  Fermi-Dirac:
    width: 0.1000  # eV
  

poisson solver:
  ecut: 6400.0  # eV

xc functional:
  name: None

convergence criteria:
- Maximum [total energy] change in last 3 cyles: 0.0005 eV / valence electron
- Maximum integral of absolute [dens]ity change: 0.0001 electrons / valence electron
- Maximum integral of absolute [eigenst]ate change: 4e-08 eV^2 / valence electron
maximum number of iterations: 333

#      iter     time        total  log10-change:
#                          energy   eigst   dens
# iter:   1 09:35:19   -13.333337                  +1.7,+0.0,+0.0
# iter:   2 09:35:50   -12.555098   +0.11  -1.31   +1.2,-0.0,-0.0
# iter:   3 09:36:21   -12.201698   -0.45  -1.46   +1.1,-0.0,-0.0
# iter:   4 09:36:53   -12.274880   -1.04  -1.68   +1.2,-0.0,-0.0
# iter:   5 09:37:24   -12.508603   -1.22  -1.66   +1.2,-0.0,-0.0
# iter:   6 09:37:55   -12.278985   -1.41  -1.75   +1.2,+0.0,-0.0
# iter:   7 09:38:26   -12.279882   -1.71  -2.24   +1.2,+0.0,-0.0
# iter:   8 09:38:58   -12.272473c  -1.88  -2.34   +1.3,+0.0,-0.0
# iter:   9 09:39:29   -12.273248c  -2.05  -2.68   +1.3,+0.0,+0.0
# iter:  10 09:40:00   -12.273885c  -2.24  -3.04   +1.3,+0.0,-0.0
# iter:  11 09:40:31   -12.277651c  -2.39  -3.02   +1.3,+0.0,-0.0
# iter:  12 09:41:03   -12.275358c  -2.55  -2.77   +1.3,+0.0,+0.0
# iter:  13 09:41:34   -12.274274c  -2.67  -2.93   +1.3,+0.0,-0.0
# iter:  14 09:42:05   -12.275834c  -2.78  -3.12   +1.3,+0.0,-0.0
# iter:  15 09:42:37   -12.275260c  -2.98  -2.91   +1.3,+0.0,-0.0
# iter:  16 09:43:08   -12.275261c  -3.16  -3.70   +1.3,+0.0,-0.0
# iter:  17 09:43:39   -12.275450c  -3.29  -3.71   +1.3,+0.0,-0.0
# iter:  18 09:44:10   -12.275432c  -3.43  -3.74   +1.3,+0.0,-0.0
# iter:  19 09:44:41   -12.275705c  -3.56  -3.77   +1.3,+0.0,-0.0
# iter:  20 09:45:13   -12.276637c  -3.69  -3.77   +1.3,+0.0,-0.0
# iter:  21 09:45:44   -12.276612c  -3.80  -3.59   +1.3,+0.0,-0.0
# iter:  22 09:46:15   -12.276689c  -3.96  -4.07c  +1.3,+0.0,-0.0
# iter:  23 09:46:46   -12.276857c  -4.10  -4.12c  +1.3,+0.0,-0.0
# iter:  24 09:47:18   -12.276799c  -4.23  -4.23c  +1.3,+0.0,-0.0
# iter:  25 09:47:49   -12.276870c  -4.38  -4.21c  +1.3,+0.0,-0.0
# iter:  26 09:48:20   -12.276883c  -4.51  -4.25c  +1.3,+0.0,-0.0
# iter:  27 09:48:51   -12.276901c  -4.66  -4.30c  +1.3,+0.0,-0.0
# iter:  28 09:49:22   -12.276925c  -4.78  -4.31c  +1.3,+0.0,-0.0
# iter:  29 09:49:53   -12.277062c  -4.92  -4.26c  +1.3,+0.0,-0.0
# iter:  30 09:50:24   -12.277078c  -5.07  -4.59c  +1.3,+0.0,-0.0
# iter:  31 09:50:55   -12.277114c  -5.19  -4.65c  +1.3,+0.0,-0.0
# iter:  32 09:51:25   -12.277162c  -5.34  -4.59c  +1.3,+0.0,-0.0
# iter:  33 09:51:56   -12.277161c  -5.48  -4.88c  +1.3,+0.0,-0.0
# iter:  34 09:52:27   -12.277154c  -5.62  -4.94c  +1.3,+0.0,-0.0
# iter:  35 09:52:58   -12.277172c  -5.77  -4.99c  +1.3,+0.0,-0.0
# iter:  36 09:53:29   -12.277160c  -5.91  -5.19c  +1.3,+0.0,-0.0
# iter:  37 09:54:00   -12.277171c  -6.06  -5.35c  +1.3,+0.0,-0.0
# iter:  38 09:54:31   -12.277176c  -6.20  -5.51c  +1.3,+0.0,-0.0
# iter:  39 09:55:02   -12.277175c  -6.35  -5.54c  +1.3,+0.0,-0.0
# iter:  40 09:55:32   -12.277176c  -6.51  -5.59c  +1.3,+0.0,-0.0
# iter:  41 09:56:04   -12.277176c  -6.67  -5.62c  +1.3,+0.0,-0.0
# iter:  42 09:56:34   -12.277178c  -6.82  -5.64c  +1.3,+0.0,-0.0
# iter:  43 09:57:05   -12.277180c  -6.98  -5.71c  +1.3,+0.0,-0.0
# iter:  44 09:57:36   -12.277180c  -7.13  -5.71c  +1.3,+0.0,-0.0
# iter:  45 09:58:07   -12.277181c  -7.29  -5.71c  +1.3,+0.0,-0.0
# iter:  46 09:58:38   -12.277182c  -7.45c -5.72c  +1.3,+0.0,-0.0
scf_steps: 46
energies:  # eV
  coulomb:          -7.882198
  zero:              0.067364
  xc:              -14.903399
  external:          0.000000
  kinetic:          10.469325
  spinorbit:         0.000000
  entropy:          -0.056548
  total:           -12.305456
  extrapolated:    -12.277182

dipole moment: [-3.715688, -6.520646, -2.405062]  # |e|*Ang

total magnetic moment: [1.327316, 0.011435, -0.000000]

local magnetic moments: [
  [ 1.116623, -0.004297, -0.000000],  # Ni 0
  [-0.024508, -0.081536, -0.000000],  # I  1
  [ 0.074673, -0.040901, -0.000000]]  # I  2


Fermi level: -1.187 eV

kpt = [-0.467, -0.467, 0.000], weight = 0.004:
  Band      eig [eV]   occ [0-1]
     0       -64.952       1.000
   ...
    22        -3.009       1.000
    23        -2.956       1.000
    24        -2.712       1.000
    25        -2.270       1.000
    26        -2.182       1.000
    27        -2.069       1.000
    28        -1.878       0.999
    29        -1.592       0.983
    30        -0.975       0.107
    31        -0.724       0.010
    32         2.130       0.000
    33         2.646       0.000
    34         4.228       0.000
    35         4.281       0.000
    36         4.658       0.000
    37         4.997       0.000
   ...
    39         5.730       0.000

kpt = [-0.467, -0.400, 0.000], weight = 0.004:
  Band      eig [eV]   occ [0-1]
     0       -64.952       1.000
   ...
    22        -3.000       1.000
    23        -2.927       1.000
    24        -2.754       1.000
    25        -2.327       1.000
    26        -2.143       1.000
    27        -2.098       1.000
    28        -1.783       0.997
    29        -1.613       0.986
    30        -0.905       0.056
    31        -0.727       0.010
    32         1.933       0.000
    33         2.594       0.000
    34         3.866       0.000
    35         4.410       0.000
    36         4.600       0.000
    37         5.042       0.000
   ...
    39         5.539       0.000

kpt = [-0.467, -0.333, 0.000], weight = 0.004:
  Band      eig [eV]   occ [0-1]
     0       -64.952       1.000
   ...
    22        -2.994       1.000
    23        -2.857       1.000
    24        -2.756       1.000
    25        -2.390       1.000
    26        -2.110       1.000
    27        -2.092       1.000
    28        -1.784       0.997
    29        -1.570       0.979
    30        -0.967       0.099
    31        -0.685       0.007
    32         2.000       0.000
    33         2.587       0.000
    34         3.783       0.000
    35         4.375       0.000
    36         4.672       0.000
    37         4.910       0.000
   ...
    39         5.641       0.000
(only showing first 3 out of 225 k-points)

No gap
# Writing to Band_Conv/gsq-27.gpw (mode='')

---

timing:  # [seconds]
  Total: 2951.926  # ━━━━━━━━━━━━━━━━━━━━━━━━━━━━━━━━━━━━━━━━━━━━━━━━━━━━━━━━
  Init:    18.352  # ╸
  SCF:   1427.336  # ━━━━━━━━━━━━━━━━━━━━━━━━━━━

Max RSS: 2278.727  # MiB
