#  __  _  _
# | _ |_)|_||  |
# |__||  | ||/\| - 24.1.0

User:   s194113@n-62-29-10
Date:   Mon May  6 12:03:23 2024
Arch:   x86_64
Pid:    14705
CWD:    /work3/s194113/10302/10302_NM/NiI2
Python: 3.8.5
gpaw:   /zhome/87/8/147075/venv-name/gpaw/gpaw (10808453a8)
_gpaw:  /zhome/87/8/147075/venv-name/gpaw/
        _gpaw.cpython-38-x86_64-linux-gnu.so (10808453a8)
ase:    /zhome/87/8/147075/venv-name/ase/ase (version 3.23.0b1-c36115a2db)
numpy:  /zhome/87/8/147075/venv-name/lib/python3.8/site-packages/numpy (version 1.24.4)
scipy:  /zhome/87/8/147075/venv-name/lib/python3.8/site-packages/scipy (version 1.10.1)
libxc:  4.3.4
units:  Angstrom and eV
cores: 18
OpenMP: False
OMP_NUM_THREADS: 1

---
input parameters:
  kpts: 
    density: 8.0
    gamma: True
  magmoms: [[1.28782608, 0, 0], [0.19870794, 0, 0], [0.19870794, 0, 0]]
  mixer: 
    backend: 'pulay'
    beta: 0.05
    method: 'sum'
    nmaxold: 5
    weight: 100
  mode: 
    name: 'pw'
    ecut: 800.0
    qspiral: array([0.45833333, 0.        , 0.        ])
  parallel: 
    kpt: None
    domain: 1
    band: 1
    order: 'kdb'
    stridebands: False
    augment_grids: False
    sl_auto: False
    sl_default: None
    sl_diagonalize: None
    sl_inverse_cholesky: None
    sl_lcao: None
    sl_lrtddft: None
    use_elpa: False
    elpasolver: '2stage'
    buffer_size: None
    gpu: False
  symmetry: 
    point_group: False
    time_reversal: False
  xc: 
    name: 'LDA'

#                        
#                        
#                        
#                        
#                        
#              I         
#                        
#        Ni              
#          I             
#                        
#                        
#                        
#                        
#                        

atoms: [  # symbols, positions [Ang] and initial magnetic moments
  [ Ni, [   0.000000,    0.000000,    7.513573], [ 1.288,  0.000,  0.000]], # 0
  [  I, [   1.984831,    1.145943,    9.027147], [ 0.199,  0.000,  0.000]], # 1
  [  I, [   0.000000,    2.291885,    6.000000], [ 0.199,  0.000,  0.000]]] # 2

cell: [  # Ang
#     x            y            z
  [   3.969662,    0.000000,    0.000000],
  [  -1.984831,    3.437828,    0.000000],
  [   0.000000,    0.000000,   15.027147]]

periodic: [True      , True      , False     ]
lengths:  [  3.969662,   3.969662,  15.027147]  # Ang
angles:   [ 90.000000,  90.000000, 120.000000]

symmetry:
  number of symmetries: 1
  rotations: [
    [[ 1,  0,  0], [ 0,  1,  0], [ 0,  0,  1]]]

bz sampling:
  number of bz points: 225
  number of ibz points: 225
  monkhorst-pack size: [15, 15, 1]
  monkhorst-pack shift: [0, 0, 0]
  points and weights: [
    [[ -0.46666667,  -0.46666667,   0.00000000], 0.00444444],  # 0
    [[ -0.46666667,  -0.40000000,   0.00000000], 0.00444444],  # 1
    [[ -0.46666667,  -0.33333333,   0.00000000], 0.00444444],  # 2
    [[ -0.46666667,  -0.26666667,   0.00000000], 0.00444444],  # 3
    [[ -0.46666667,  -0.20000000,   0.00000000], 0.00444444],  # 4
    [[ -0.46666667,  -0.13333333,   0.00000000], 0.00444444],  # 5
    [[ -0.46666667,  -0.06666667,   0.00000000], 0.00444444],  # 6
    [[ -0.46666667,   0.00000000,   0.00000000], 0.00444444],  # 7
    [[ -0.46666667,   0.06666667,   0.00000000], 0.00444444],  # 8
    [[ -0.46666667,   0.13333333,   0.00000000], 0.00444444],  # 9
    # ...
    [[  0.46666667,   0.46666667,   0.00000000], 0.00444444]]  # 224

plane wave coefficients: 10580
cutoff: 800.0 eV

spin-components: 4  # (non-collinear spins)
bands: 40
valence electrons: 30.0
spin-degeneracy: 1
dtype: complex128

memory:
    wave functions: 3_041_856_000  # bytes  (168_992_000 per core)

parallelization:
    kpt:    18
    domain: 1
    band:   1

density:
  components: 4
  grid points: [ 27  27 100]
  charge: 0.0  # |e|

potential:
  grid points: [ 27  27 100]

species:
  Ni:
    name: Nickel
    id: 1802175e8de9ea26d9f4394ec1a7d564
    Z: 28.0
    valence: 16
    core: 12
    charge: 0.0
    file: /zhome/86/d/1666/PAW/gpaw-setups-0.9.20000/Ni.LDA.gz
    compensation charges: {type: gauss,
                           rc: 0.36,
                           lmax: 2}
    cutoffs: {filter: 2.14,
              core: 1.98}
    valence states:
      #              energy  rcut
      - 4s(2.00)    -5.858   1.164
      - 3p(6.00)   -71.266   1.207
      - 4p(0.00)    -1.338   1.207
      - 3d(8.00)    -9.141   1.138
      -  s          21.353   1.164
      -  d          18.071   1.138
  
    # Using partial waves for Ni as LCAO basis

  I:
    name: Iodine
    id: b559721c0c096a7b4c8fc0e0f4de5cf4
    Z: 53.0
    valence: 7
    core: 46
    charge: 0.0
    file: /zhome/86/d/1666/PAW/gpaw-setups-0.9.20000/I.LDA.gz
    compensation charges: {type: gauss,
                           rc: 0.37,
                           lmax: 2}
    cutoffs: {filter: 2.06,
              core: 2.90}
    valence states:
      #              energy  rcut
      - 5s(2.00)   -17.626   1.164
      - 5p(5.00)    -7.241   1.164
      -  s           9.585   1.164
      -  p          19.970   1.164
      -  d           0.000   1.164
  
    # Using partial waves for I as LCAO basis

Reference energy: -428067.566327  # eV

eigensolver:
  name: 'Davidson'
  niter: 2
  converge_bands: 'occupied'
Density mixing:
  Method: sum
  Backend: pulay
  Linear mixing parameter: 0.05
  old densities: 5
  Damping of long wavelength oscillations: 100
occupation numbers:
  Fermi-Dirac:
    width: 0.1000  # eV
  

poisson solver:
  ecut: 6400.0  # eV

xc functional:
  name: None

convergence criteria:
- Maximum [total energy] change in last 3 cyles: 0.0005 eV / valence electron
- Maximum integral of absolute [dens]ity change: 0.0001 electrons / valence electron
- Maximum integral of absolute [eigenst]ate change: 4e-08 eV^2 / valence electron
maximum number of iterations: 333

#      iter     time        total  log10-change:
#                          energy   eigst   dens
# iter:   1 12:04:10   -13.047861                  +1.7,+0.0,+0.0
# iter:   2 12:04:41   -12.478855   +0.27  -1.31   +1.1,-0.0,-0.0
# iter:   3 12:05:12   -12.168889   -0.35  -1.46   +1.0,-0.0,-0.0
# iter:   4 12:05:42   -12.231748   -0.91  -1.68   +1.1,-0.0,-0.0
# iter:   5 12:06:13   -12.547483   -1.08  -1.66   +1.1,-0.0,+0.0
# iter:   6 12:06:44   -12.247177   -1.28  -1.70   +1.0,+0.0,+0.0
# iter:   7 12:07:15   -12.251932   -1.57  -2.25   +1.1,+0.0,-0.0
# iter:   8 12:07:46   -12.246881c  -1.74  -2.35   +1.1,+0.0,-0.0
# iter:   9 12:08:16   -12.247891c  -1.89  -2.63   +1.1,+0.0,+0.0
# iter:  10 12:08:47   -12.248656c  -2.07  -3.05   +1.1,+0.0,+0.0
# iter:  11 12:09:18   -12.255900c  -2.21  -3.02   +1.1,+0.0,-0.0
# iter:  12 12:09:49   -12.254167c  -2.37  -2.70   +1.1,+0.0,-0.0
# iter:  13 12:10:20   -12.254746c  -2.51  -2.78   +1.1,+0.0,-0.0
# iter:  14 12:10:51   -12.253725c  -2.64  -2.75   +1.2,+0.0,-0.0
# iter:  15 12:11:22   -12.252203c  -2.70  -2.86   +1.2,+0.0,+0.0
# iter:  16 12:11:52   -12.252530c  -2.92  -3.61   +1.2,+0.0,+0.0
# iter:  17 12:12:23   -12.252661c  -3.06  -3.80   +1.2,+0.0,+0.0
# iter:  18 12:12:54   -12.252787c  -3.19  -4.11c  +1.2,+0.0,+0.0
# iter:  19 12:13:25   -12.252933c  -3.33  -4.09c  +1.2,+0.0,+0.0
# iter:  20 12:13:56   -12.253218c  -3.46  -4.12c  +1.2,+0.0,+0.0
# iter:  21 12:14:27   -12.253322c  -3.59  -4.21c  +1.2,+0.0,+0.0
# iter:  22 12:14:58   -12.253764c  -3.72  -4.25c  +1.2,+0.0,+0.0
# iter:  23 12:15:29   -12.253624c  -3.86  -4.45c  +1.2,+0.0,+0.0
# iter:  24 12:16:00   -12.253723c  -4.00  -4.64c  +1.2,+0.0,+0.0
# iter:  25 12:16:31   -12.253717c  -4.13  -4.67c  +1.2,+0.0,+0.0
# iter:  26 12:17:02   -12.253754c  -4.27  -4.88c  +1.2,+0.0,+0.0
# iter:  27 12:17:33   -12.253773c  -4.41  -4.78c  +1.2,+0.0,+0.0
# iter:  28 12:18:03   -12.253789c  -4.55  -5.00c  +1.2,+0.0,+0.0
# iter:  29 12:18:35   -12.253801c  -4.69  -5.07c  +1.2,+0.0,+0.0
# iter:  30 12:19:06   -12.253813c  -4.83  -5.19c  +1.2,+0.0,+0.0
# iter:  31 12:19:37   -12.253797c  -4.97  -5.33c  +1.2,+0.0,+0.0
# iter:  32 12:20:07   -12.253805c  -5.11  -5.27c  +1.2,+0.0,+0.0
# iter:  33 12:20:38   -12.253806c  -5.25  -5.40c  +1.2,+0.0,+0.0
# iter:  34 12:21:09   -12.253805c  -5.39  -5.42c  +1.2,+0.0,+0.0
# iter:  35 12:21:40   -12.253814c  -5.53  -5.42c  +1.2,+0.0,+0.0
# iter:  36 12:22:11   -12.253810c  -5.67  -5.48c  +1.2,+0.0,+0.0
# iter:  37 12:22:42   -12.253810c  -5.81  -5.48c  +1.2,+0.0,+0.0
# iter:  38 12:23:13   -12.253812c  -5.95  -5.49c  +1.2,+0.0,+0.0
# iter:  39 12:23:44   -12.253797c  -6.09  -5.50c  +1.2,+0.0,+0.0
# iter:  40 12:24:14   -12.253795c  -6.24  -5.60c  +1.2,+0.0,+0.0
# iter:  41 12:24:45   -12.253792c  -6.38  -5.60c  +1.2,+0.0,+0.0
# iter:  42 12:25:16   -12.253792c  -6.52  -5.61c  +1.2,+0.0,+0.0
# iter:  43 12:25:47   -12.253792c  -6.66  -5.61c  +1.2,+0.0,+0.0
# iter:  44 12:26:18   -12.253792c  -6.80  -5.60c  +1.2,+0.0,+0.0
# iter:  45 12:26:48   -12.253792c  -6.95  -5.60c  +1.2,+0.0,+0.0
# iter:  46 12:27:19   -12.253791c  -7.08  -5.66c  +1.2,+0.0,+0.0
# iter:  47 12:27:50   -12.253792c  -7.23  -5.81c  +1.2,+0.0,+0.0
# iter:  48 12:28:20   -12.253792c  -7.37  -5.86c  +1.2,+0.0,+0.0
# iter:  49 12:28:51   -12.253791c  -7.51c -5.87c  +1.2,+0.0,+0.0
scf_steps: 49
energies:  # eV
  coulomb:          -8.023482
  zero:              0.067030
  xc:              -14.909107
  external:          0.000000
  kinetic:          10.646468
  spinorbit:         0.000000
  entropy:          -0.069402
  total:           -12.288492
  extrapolated:    -12.253791

dipole moment: [-3.530243, -6.298832, -1.246901]  # |e|*Ang

total magnetic moment: [1.186493, 0.004394, 0.000000]

local magnetic moments: [
  [ 1.109113, -0.001479,  0.000000],  # Ni 0
  [-0.053320, -0.029440,  0.000000],  # I  1
  [ 0.059077, -0.014795,  0.000000]]  # I  2


Fermi level: -1.195 eV

kpt = [-0.467, -0.467, 0.000], weight = 0.004:
  Band      eig [eV]   occ [0-1]
     0       -64.949       1.000
   ...
    22        -3.006       1.000
    23        -2.933       1.000
    24        -2.673       1.000
    25        -2.267       1.000
    26        -2.187       1.000
    27        -2.078       1.000
    28        -1.909       0.999
    29        -1.591       0.981
    30        -1.050       0.190
    31        -0.738       0.010
    32         2.418       0.000
    33         2.634       0.000
    34         4.243       0.000
    35         4.316       0.000
    36         4.882       0.000
    37         5.256       0.000
   ...
    39         5.749       0.000

kpt = [-0.467, -0.400, 0.000], weight = 0.004:
  Band      eig [eV]   occ [0-1]
     0       -64.949       1.000
   ...
    22        -2.957       1.000
    23        -2.935       1.000
    24        -2.700       1.000
    25        -2.335       1.000
    26        -2.148       1.000
    27        -2.095       1.000
    28        -1.798       0.998
    29        -1.591       0.981
    30        -0.972       0.097
    31        -0.754       0.012
    32         2.215       0.000
    33         2.533       0.000
    34         4.067       0.000
    35         4.520       0.000
    36         4.690       0.000
    37         4.979       0.000
   ...
    39         5.494       0.000

kpt = [-0.467, -0.333, 0.000], weight = 0.004:
  Band      eig [eV]   occ [0-1]
     0       -64.949       1.000
   ...
    22        -2.959       1.000
    23        -2.860       1.000
    24        -2.700       1.000
    25        -2.429       1.000
    26        -2.107       1.000
    27        -2.085       1.000
    28        -1.792       0.997
    29        -1.511       0.959
    30        -1.015       0.142
    31        -0.675       0.005
    32         2.143       0.000
    33         2.554       0.000
    34         3.817       0.000
    35         4.388       0.000
    36         4.513       0.000
    37         4.829       0.000
   ...
    39         5.683       0.000
(only showing first 3 out of 225 k-points)

No gap
# Writing to Band_Conv/gsq-33.gpw (mode='')

