#  __  _  _
# | _ |_)|_||  |
# |__||  | ||/\| - 24.1.0

User:   s194113@n-62-29-10
Date:   Mon May  6 22:37:57 2024
Arch:   x86_64
Pid:    14705
CWD:    /work3/s194113/10302/10302_NM/NiI2
Python: 3.8.5
gpaw:   /zhome/87/8/147075/venv-name/gpaw/gpaw (10808453a8)
_gpaw:  /zhome/87/8/147075/venv-name/gpaw/
        _gpaw.cpython-38-x86_64-linux-gnu.so (10808453a8)
ase:    /zhome/87/8/147075/venv-name/ase/ase (version 3.23.0b1-c36115a2db)
numpy:  /zhome/87/8/147075/venv-name/lib/python3.8/site-packages/numpy (version 1.24.4)
scipy:  /zhome/87/8/147075/venv-name/lib/python3.8/site-packages/scipy (version 1.10.1)
libxc:  4.3.4
units:  Angstrom and eV
cores: 18
OpenMP: False
OMP_NUM_THREADS: 1

---
input parameters:
  kpts: 
    density: 8.0
    gamma: True
  magmoms: [[1.28782608, 0, 0], [0.19870794, 0, 0], [0.19870794, 0, 0]]
  mixer: 
    backend: 'pulay'
    beta: 0.05
    method: 'sum'
    nmaxold: 5
    weight: 100
  mode: 
    name: 'pw'
    ecut: 800.0
    qspiral: array([0.33333333, 0.33333333, 0.        ])
  parallel: 
    kpt: None
    domain: 1
    band: 1
    order: 'kdb'
    stridebands: False
    augment_grids: False
    sl_auto: False
    sl_default: None
    sl_diagonalize: None
    sl_inverse_cholesky: None
    sl_lcao: None
    sl_lrtddft: None
    use_elpa: False
    elpasolver: '2stage'
    buffer_size: None
    gpu: False
  symmetry: 
    point_group: False
    time_reversal: False
  xc: 
    name: 'LDA'

#                        
#                        
#                        
#                        
#                        
#              I         
#                        
#        Ni              
#          I             
#                        
#                        
#                        
#                        
#                        

atoms: [  # symbols, positions [Ang] and initial magnetic moments
  [ Ni, [   0.000000,    0.000000,    7.513573], [ 1.288,  0.000,  0.000]], # 0
  [  I, [   1.984831,    1.145943,    9.027147], [ 0.199,  0.000,  0.000]], # 1
  [  I, [   0.000000,    2.291885,    6.000000], [ 0.199,  0.000,  0.000]]] # 2

cell: [  # Ang
#     x            y            z
  [   3.969662,    0.000000,    0.000000],
  [  -1.984831,    3.437828,    0.000000],
  [   0.000000,    0.000000,   15.027147]]

periodic: [True      , True      , False     ]
lengths:  [  3.969662,   3.969662,  15.027147]  # Ang
angles:   [ 90.000000,  90.000000, 120.000000]

symmetry:
  number of symmetries: 1
  rotations: [
    [[ 1,  0,  0], [ 0,  1,  0], [ 0,  0,  1]]]

bz sampling:
  number of bz points: 225
  number of ibz points: 225
  monkhorst-pack size: [15, 15, 1]
  monkhorst-pack shift: [0, 0, 0]
  points and weights: [
    [[ -0.46666667,  -0.46666667,   0.00000000], 0.00444444],  # 0
    [[ -0.46666667,  -0.40000000,   0.00000000], 0.00444444],  # 1
    [[ -0.46666667,  -0.33333333,   0.00000000], 0.00444444],  # 2
    [[ -0.46666667,  -0.26666667,   0.00000000], 0.00444444],  # 3
    [[ -0.46666667,  -0.20000000,   0.00000000], 0.00444444],  # 4
    [[ -0.46666667,  -0.13333333,   0.00000000], 0.00444444],  # 5
    [[ -0.46666667,  -0.06666667,   0.00000000], 0.00444444],  # 6
    [[ -0.46666667,   0.00000000,   0.00000000], 0.00444444],  # 7
    [[ -0.46666667,   0.06666667,   0.00000000], 0.00444444],  # 8
    [[ -0.46666667,   0.13333333,   0.00000000], 0.00444444],  # 9
    # ...
    [[  0.46666667,   0.46666667,   0.00000000], 0.00444444]]  # 224

plane wave coefficients: 10580
cutoff: 800.0 eV

spin-components: 4  # (non-collinear spins)
bands: 40
valence electrons: 30.0
spin-degeneracy: 1
dtype: complex128

memory:
    wave functions: 3_041_856_000  # bytes  (168_992_000 per core)

parallelization:
    kpt:    18
    domain: 1
    band:   1

density:
  components: 4
  grid points: [ 27  27 100]
  charge: 0.0  # |e|

potential:
  grid points: [ 27  27 100]

species:
  Ni:
    name: Nickel
    id: 1802175e8de9ea26d9f4394ec1a7d564
    Z: 28.0
    valence: 16
    core: 12
    charge: 0.0
    file: /zhome/86/d/1666/PAW/gpaw-setups-0.9.20000/Ni.LDA.gz
    compensation charges: {type: gauss,
                           rc: 0.36,
                           lmax: 2}
    cutoffs: {filter: 2.14,
              core: 1.98}
    valence states:
      #              energy  rcut
      - 4s(2.00)    -5.858   1.164
      - 3p(6.00)   -71.266   1.207
      - 4p(0.00)    -1.338   1.207
      - 3d(8.00)    -9.141   1.138
      -  s          21.353   1.164
      -  d          18.071   1.138
  
    # Using partial waves for Ni as LCAO basis

  I:
    name: Iodine
    id: b559721c0c096a7b4c8fc0e0f4de5cf4
    Z: 53.0
    valence: 7
    core: 46
    charge: 0.0
    file: /zhome/86/d/1666/PAW/gpaw-setups-0.9.20000/I.LDA.gz
    compensation charges: {type: gauss,
                           rc: 0.37,
                           lmax: 2}
    cutoffs: {filter: 2.06,
              core: 2.90}
    valence states:
      #              energy  rcut
      - 5s(2.00)   -17.626   1.164
      - 5p(5.00)    -7.241   1.164
      -  s           9.585   1.164
      -  p          19.970   1.164
      -  d           0.000   1.164
  
    # Using partial waves for I as LCAO basis

Reference energy: -428067.566327  # eV

eigensolver:
  name: 'Davidson'
  niter: 2
  converge_bands: 'occupied'
Density mixing:
  Method: sum
  Backend: pulay
  Linear mixing parameter: 0.05
  old densities: 5
  Damping of long wavelength oscillations: 100
occupation numbers:
  Fermi-Dirac:
    width: 0.1000  # eV
  

poisson solver:
  ecut: 6400.0  # eV

xc functional:
  name: None

convergence criteria:
- Maximum [total energy] change in last 3 cyles: 0.0005 eV / valence electron
- Maximum integral of absolute [dens]ity change: 0.0001 electrons / valence electron
- Maximum integral of absolute [eigenst]ate change: 4e-08 eV^2 / valence electron
maximum number of iterations: 333

#      iter     time        total  log10-change:
#                          energy   eigst   dens
# iter:   1 22:38:44   -12.539300                  +1.7,+0.0,+0.0
# iter:   2 22:39:15   -12.399085   +0.47  -1.31   +1.1,-0.0,-0.0
# iter:   3 22:39:46   -12.177804   -0.21  -1.45   +0.9,-0.0,-0.0
# iter:   4 22:40:16   -12.229207   -0.74  -1.68   +1.0,-0.0,+0.0
# iter:   5 22:40:48   -12.552397   -0.93  -1.69   +1.0,-0.0,-0.0
# iter:   6 22:41:19   -12.292127   -1.17  -1.72   +0.9,-0.0,-0.0
# iter:   7 22:41:50   -12.305239   -1.42  -2.26   +1.0,-0.0,-0.0
# iter:   8 22:42:21   -12.289232   -1.56  -2.29   +1.0,-0.0,-0.0
# iter:   9 22:42:52   -12.291034   -1.73  -2.79   +1.0,+0.0,-0.0
# iter:  10 22:43:23   -12.291539c  -1.89  -3.04   +1.0,+0.0,+0.0
# iter:  11 22:43:54   -12.292855c  -2.02  -3.12   +1.0,+0.0,+0.0
# iter:  12 22:44:25   -12.293502c  -2.16  -3.27   +1.0,+0.0,+0.0
# iter:  13 22:44:56   -12.293847c  -2.29  -3.60   +1.0,+0.0,-0.0
# iter:  14 22:45:27   -12.294038c  -2.42  -3.59   +1.0,+0.0,-0.0
# iter:  15 22:45:58   -12.294254c  -2.56  -3.65   +1.0,+0.0,+0.0
# iter:  16 22:46:29   -12.294307c  -2.68  -3.85   +1.0,+0.0,-0.0
# iter:  17 22:47:00   -12.294341c  -2.81  -3.86   +1.0,+0.0,-0.0
# iter:  18 22:47:31   -12.294429c  -2.94  -3.89   +1.0,+0.0,-0.0
# iter:  19 22:48:02   -12.294459c  -3.06  -3.90   +1.0,+0.0,-0.0
# iter:  20 22:48:33   -12.294509c  -3.19  -3.96   +1.0,+0.0,-0.0
# iter:  21 22:49:04   -12.294801c  -3.31  -3.99   +1.0,+0.0,-0.0
# iter:  22 22:49:35   -12.294822c  -3.44  -4.33c  +1.0,+0.0,-0.0
# iter:  23 22:50:06   -12.294844c  -3.56  -4.40c  +1.0,+0.0,-0.0
# iter:  24 22:50:36   -12.294897c  -3.69  -4.40c  +1.0,+0.0,-0.0
# iter:  25 22:51:07   -12.294968c  -3.81  -4.41c  +1.0,+0.0,-0.0
# iter:  26 22:51:37   -12.294999c  -3.94  -4.45c  +1.0,+0.0,-0.0
# iter:  27 22:52:08   -12.295072c  -4.06  -4.54c  +1.0,+0.0,-0.0
# iter:  28 22:52:38   -12.295040c  -4.18  -4.75c  +1.0,+0.0,+0.0
# iter:  29 22:53:09   -12.295101c  -4.31  -4.71c  +1.0,+0.0,+0.0
# iter:  30 22:53:40   -12.295125c  -4.44  -5.02c  +1.0,+0.0,+0.0
# iter:  31 22:54:10   -12.295151c  -4.56  -5.11c  +1.0,+0.0,+0.0
# iter:  32 22:54:41   -12.295153c  -4.69  -5.53c  +1.0,+0.0,-0.0
# iter:  33 22:55:12   -12.295154c  -4.81  -5.68c  +1.0,+0.0,-0.0
# iter:  34 22:55:42   -12.295153c  -4.94  -5.71c  +1.0,+0.0,-0.0
# iter:  35 22:56:13   -12.295156c  -5.07  -5.68c  +1.0,+0.0,-0.0
# iter:  36 22:56:44   -12.295157c  -5.20  -5.71c  +1.0,+0.0,-0.0
# iter:  37 22:57:15   -12.295158c  -5.33  -5.71c  +1.0,+0.0,-0.0
# iter:  38 22:57:45   -12.295158c  -5.46  -5.69c  +1.0,+0.0,-0.0
# iter:  39 22:58:16   -12.295160c  -5.59  -5.68c  +1.0,+0.0,+0.0
# iter:  40 22:58:46   -12.295160c  -5.72  -5.73c  +1.0,+0.0,-0.0
# iter:  41 22:59:17   -12.295158c  -5.86  -5.71c  +1.0,+0.0,-0.0
# iter:  42 22:59:48   -12.295162c  -5.99  -5.71c  +1.0,+0.0,-0.0
# iter:  43 23:00:18   -12.295162c  -6.12  -5.68c  +1.0,+0.0,-0.0
# iter:  44 23:00:49   -12.295163c  -6.25  -5.67c  +1.0,+0.0,-0.0
# iter:  45 23:01:19   -12.295163c  -6.39  -5.72c  +1.0,+0.0,-0.0
# iter:  46 23:01:50   -12.295163c  -6.52  -5.63c  +1.0,+0.0,-0.0
# iter:  47 23:02:21   -12.295161c  -6.66  -5.63c  +1.0,+0.0,-0.0
# iter:  48 23:02:52   -12.295165c  -6.79  -5.65c  +1.0,+0.0,-0.0
# iter:  49 23:03:22   -12.295166c  -6.92  -5.64c  +1.0,+0.0,-0.0
# iter:  50 23:03:53   -12.295158c  -7.05  -5.68c  +1.0,+0.0,-0.0
# iter:  51 23:04:24   -12.295157c  -7.18  -6.17c  +1.0,+0.0,-0.0
# iter:  52 23:04:55   -12.295157c  -7.31  -6.28c  +1.0,+0.0,-0.0
# iter:  53 23:05:26   -12.295157c  -7.45c -6.39c  +1.0,+0.0,-0.0
scf_steps: 53
energies:  # eV
  coulomb:          -7.666629
  zero:              0.067670
  xc:              -14.874810
  external:          0.000000
  kinetic:          10.199877
  spinorbit:         0.000000
  entropy:          -0.042532
  total:           -12.316423
  extrapolated:    -12.295157

dipole moment: [-3.465637, -6.002110, -0.559004]  # |e|*Ang

total magnetic moment: [1.049800, 0.000061, -0.000000]

local magnetic moments: [
  [ 1.111609,  0.000063, -0.000000],  # Ni 0
  [ 0.000014, -0.000025, -0.000000],  # I  1
  [-0.000030,  0.000000, -0.000000]]  # I  2


Fermi level: -1.200 eV

kpt = [-0.467, -0.467, 0.000], weight = 0.004:
  Band      eig [eV]   occ [0-1]
     0       -64.938       1.000
   ...
    22        -3.026       1.000
    23        -2.800       1.000
    24        -2.783       1.000
    25        -2.324       1.000
    26        -2.102       1.000
    27        -2.090       1.000
    28        -1.844       0.998
    29        -1.841       0.998
    30        -0.956       0.080
    31        -0.935       0.066
    32         2.508       0.000
    33         2.641       0.000
    34         4.585       0.000
    35         4.756       0.000
    36         4.959       0.000
    37         5.177       0.000
   ...
    39         6.349       0.000

kpt = [-0.467, -0.400, 0.000], weight = 0.004:
  Band      eig [eV]   occ [0-1]
     0       -64.938       1.000
   ...
    22        -2.968       1.000
    23        -2.842       1.000
    24        -2.780       1.000
    25        -2.375       1.000
    26        -2.156       1.000
    27        -2.104       1.000
    28        -1.778       0.997
    29        -1.743       0.996
    30        -0.933       0.064
    31        -0.859       0.032
    32         2.392       0.000
    33         2.608       0.000
    34         4.311       0.000
    35         4.601       0.000
    36         4.998       0.000
    37         5.334       0.000
   ...
    39         5.572       0.000

kpt = [-0.467, -0.333, 0.000], weight = 0.004:
  Band      eig [eV]   occ [0-1]
     0       -64.938       1.000
   ...
    22        -2.912       1.000
    23        -2.898       1.000
    24        -2.778       1.000
    25        -2.397       1.000
    26        -2.217       1.000
    27        -2.098       1.000
    28        -1.683       0.992
    29        -1.596       0.981
    30        -0.916       0.055
    31        -0.765       0.013
    32         2.123       0.000
    33         2.474       0.000
    34         4.234       0.000
    35         4.332       0.000
    36         4.751       0.000
    37         4.902       0.000
   ...
    39         5.292       0.000
(only showing first 3 out of 225 k-points)

Gap: 0.440 eV
Transition (v -> c):
  (s=0, k=70, n=29, [-0.20, 0.20, 0.00]) -> (s=0, k=112, n=30, [0.00, 0.00, 0.00])
# Writing to Band_Conv/gsq-57.gpw (mode='')

---

timing:  # [seconds]
  Total: 4445.204  # ━━━━━━━━━━━━━━━━━━━━━━━━━━━━━━━━━━━━━━━━━━━━━━━━━━━━━━━━
  Init:    18.126  # 
  SCF:   1631.207  # ━━━━━━━━━━━━━━━━━━━━╸

Max RSS: 2921.945  # MiB
