#  __  _  _
# | _ |_)|_||  |
# |__||  | ||/\| - 24.1.0

User:   s194113@n-62-29-10
Date:   Tue May  7 06:55:03 2024
Arch:   x86_64
Pid:    14705
CWD:    /work3/s194113/10302/10302_NM/NiI2
Python: 3.8.5
gpaw:   /zhome/87/8/147075/venv-name/gpaw/gpaw (10808453a8)
_gpaw:  /zhome/87/8/147075/venv-name/gpaw/
        _gpaw.cpython-38-x86_64-linux-gnu.so (10808453a8)
ase:    /zhome/87/8/147075/venv-name/ase/ase (version 3.23.0b1-c36115a2db)
numpy:  /zhome/87/8/147075/venv-name/lib/python3.8/site-packages/numpy (version 1.24.4)
scipy:  /zhome/87/8/147075/venv-name/lib/python3.8/site-packages/scipy (version 1.10.1)
libxc:  4.3.4
units:  Angstrom and eV
cores: 18
OpenMP: False
OMP_NUM_THREADS: 1

---
input parameters:
  kpts: 
    density: 8.0
    gamma: True
  magmoms: [[1.28782608, 0, 0], [0.19870794, 0, 0], [0.19870794, 0, 0]]
  mixer: 
    backend: 'pulay'
    beta: 0.05
    method: 'sum'
    nmaxold: 5
    weight: 100
  mode: 
    name: 'pw'
    ecut: 800.0
    qspiral: array([0.18604651, 0.18604651, 0.        ])
  parallel: 
    kpt: None
    domain: 1
    band: 1
    order: 'kdb'
    stridebands: False
    augment_grids: False
    sl_auto: False
    sl_default: None
    sl_diagonalize: None
    sl_inverse_cholesky: None
    sl_lcao: None
    sl_lrtddft: None
    use_elpa: False
    elpasolver: '2stage'
    buffer_size: None
    gpu: False
  symmetry: 
    point_group: False
    time_reversal: False
  xc: 
    name: 'LDA'

#                        
#                        
#                        
#                        
#                        
#              I         
#                        
#        Ni              
#          I             
#                        
#                        
#                        
#                        
#                        

atoms: [  # symbols, positions [Ang] and initial magnetic moments
  [ Ni, [   0.000000,    0.000000,    7.513573], [ 1.288,  0.000,  0.000]], # 0
  [  I, [   1.984831,    1.145943,    9.027147], [ 0.199,  0.000,  0.000]], # 1
  [  I, [   0.000000,    2.291885,    6.000000], [ 0.199,  0.000,  0.000]]] # 2

cell: [  # Ang
#     x            y            z
  [   3.969662,    0.000000,    0.000000],
  [  -1.984831,    3.437828,    0.000000],
  [   0.000000,    0.000000,   15.027147]]

periodic: [True      , True      , False     ]
lengths:  [  3.969662,   3.969662,  15.027147]  # Ang
angles:   [ 90.000000,  90.000000, 120.000000]

symmetry:
  number of symmetries: 1
  rotations: [
    [[ 1,  0,  0], [ 0,  1,  0], [ 0,  0,  1]]]

bz sampling:
  number of bz points: 225
  number of ibz points: 225
  monkhorst-pack size: [15, 15, 1]
  monkhorst-pack shift: [0, 0, 0]
  points and weights: [
    [[ -0.46666667,  -0.46666667,   0.00000000], 0.00444444],  # 0
    [[ -0.46666667,  -0.40000000,   0.00000000], 0.00444444],  # 1
    [[ -0.46666667,  -0.33333333,   0.00000000], 0.00444444],  # 2
    [[ -0.46666667,  -0.26666667,   0.00000000], 0.00444444],  # 3
    [[ -0.46666667,  -0.20000000,   0.00000000], 0.00444444],  # 4
    [[ -0.46666667,  -0.13333333,   0.00000000], 0.00444444],  # 5
    [[ -0.46666667,  -0.06666667,   0.00000000], 0.00444444],  # 6
    [[ -0.46666667,   0.00000000,   0.00000000], 0.00444444],  # 7
    [[ -0.46666667,   0.06666667,   0.00000000], 0.00444444],  # 8
    [[ -0.46666667,   0.13333333,   0.00000000], 0.00444444],  # 9
    # ...
    [[  0.46666667,   0.46666667,   0.00000000], 0.00444444]]  # 224

plane wave coefficients: 10580
cutoff: 800.0 eV

spin-components: 4  # (non-collinear spins)
bands: 40
valence electrons: 30.0
spin-degeneracy: 1
dtype: complex128

memory:
    wave functions: 3_041_856_000  # bytes  (168_992_000 per core)

parallelization:
    kpt:    18
    domain: 1
    band:   1

density:
  components: 4
  grid points: [ 27  27 100]
  charge: 0.0  # |e|

potential:
  grid points: [ 27  27 100]

species:
  Ni:
    name: Nickel
    id: 1802175e8de9ea26d9f4394ec1a7d564
    Z: 28.0
    valence: 16
    core: 12
    charge: 0.0
    file: /zhome/86/d/1666/PAW/gpaw-setups-0.9.20000/Ni.LDA.gz
    compensation charges: {type: gauss,
                           rc: 0.36,
                           lmax: 2}
    cutoffs: {filter: 2.14,
              core: 1.98}
    valence states:
      #              energy  rcut
      - 4s(2.00)    -5.858   1.164
      - 3p(6.00)   -71.266   1.207
      - 4p(0.00)    -1.338   1.207
      - 3d(8.00)    -9.141   1.138
      -  s          21.353   1.164
      -  d          18.071   1.138
  
    # Using partial waves for Ni as LCAO basis

  I:
    name: Iodine
    id: b559721c0c096a7b4c8fc0e0f4de5cf4
    Z: 53.0
    valence: 7
    core: 46
    charge: 0.0
    file: /zhome/86/d/1666/PAW/gpaw-setups-0.9.20000/I.LDA.gz
    compensation charges: {type: gauss,
                           rc: 0.37,
                           lmax: 2}
    cutoffs: {filter: 2.06,
              core: 2.90}
    valence states:
      #              energy  rcut
      - 5s(2.00)   -17.626   1.164
      - 5p(5.00)    -7.241   1.164
      -  s           9.585   1.164
      -  p          19.970   1.164
      -  d           0.000   1.164
  
    # Using partial waves for I as LCAO basis

Reference energy: -428067.566327  # eV

eigensolver:
  name: 'Davidson'
  niter: 2
  converge_bands: 'occupied'
Density mixing:
  Method: sum
  Backend: pulay
  Linear mixing parameter: 0.05
  old densities: 5
  Damping of long wavelength oscillations: 100
occupation numbers:
  Fermi-Dirac:
    width: 0.1000  # eV
  

poisson solver:
  ecut: 6400.0  # eV

xc functional:
  name: None

convergence criteria:
- Maximum [total energy] change in last 3 cyles: 0.0005 eV / valence electron
- Maximum integral of absolute [dens]ity change: 0.0001 electrons / valence electron
- Maximum integral of absolute [eigenst]ate change: 4e-08 eV^2 / valence electron
maximum number of iterations: 333

#      iter     time        total  log10-change:
#                          energy   eigst   dens
# iter:   1 06:55:51   -13.489540                  +1.7,+0.0,+0.0
# iter:   2 06:56:22   -12.611012   +0.00  -1.31   +1.3,-0.0,-0.0
# iter:   3 06:56:53   -12.237657   -0.52  -1.46   +1.3,-0.0,-0.0
# iter:   4 06:57:25   -12.314139   -1.15  -1.68   +1.3,-0.0,-0.0
# iter:   5 06:57:56   -12.502263   -1.33  -1.66   +1.3,+0.0,-0.0
# iter:   6 06:58:27   -12.324971   -1.55  -1.80   +1.4,+0.0,-0.0
# iter:   7 06:58:58   -12.318289   -1.83  -2.20   +1.4,+0.0,+0.0
# iter:   8 06:59:29   -12.307338   -2.00  -2.33   +1.4,+0.0,-0.0
# iter:   9 07:00:01   -12.308899c  -2.19  -2.78   +1.4,+0.0,+0.0
# iter:  10 07:00:32   -12.308796c  -2.40  -3.00   +1.4,+0.0,+0.0
# iter:  11 07:01:03   -12.309149c  -2.53  -3.14   +1.4,+0.0,+0.0
# iter:  12 07:01:34   -12.309400c  -2.71  -3.25   +1.4,+0.0,-0.0
# iter:  13 07:02:05   -12.309546c  -2.85  -3.78   +1.4,+0.0,-0.0
# iter:  14 07:02:36   -12.309566c  -2.99  -3.89   +1.4,+0.0,-0.0
# iter:  15 07:03:07   -12.309830c  -3.13  -3.88   +1.4,+0.0,-0.0
# iter:  16 07:03:38   -12.310010c  -3.26  -4.10c  +1.4,+0.0,-0.0
# iter:  17 07:04:09   -12.309972c  -3.41  -3.98   +1.4,+0.0,-0.0
# iter:  18 07:04:41   -12.310119c  -3.54  -4.03c  +1.4,+0.0,+0.0
# iter:  19 07:05:12   -12.310131c  -3.68  -4.22c  +1.4,+0.0,+0.0
# iter:  20 07:05:43   -12.310166c  -3.81  -4.25c  +1.4,+0.0,+0.0
# iter:  21 07:06:14   -12.310303c  -3.94  -4.30c  +1.4,+0.0,+0.0
# iter:  22 07:06:45   -12.310313c  -4.07  -4.50c  +1.4,+0.0,+0.0
# iter:  23 07:07:16   -12.310318c  -4.21  -4.56c  +1.4,+0.0,-0.0
# iter:  24 07:07:47   -12.310330c  -4.34  -4.70c  +1.4,+0.0,+0.0
# iter:  25 07:08:18   -12.310321c  -4.46  -4.87c  +1.4,+0.0,+0.0
# iter:  26 07:08:50   -12.310318c  -4.59  -5.30c  +1.4,+0.0,+0.0
# iter:  27 07:09:21   -12.310319c  -4.73  -5.33c  +1.4,+0.0,+0.0
# iter:  28 07:09:51   -12.310321c  -4.86  -5.33c  +1.4,+0.0,+0.0
# iter:  29 07:10:23   -12.310314c  -4.99  -5.25c  +1.4,+0.0,+0.0
# iter:  30 07:10:54   -12.310317c  -5.13  -5.22c  +1.4,+0.0,+0.0
# iter:  31 07:11:25   -12.310317c  -5.26  -5.26c  +1.4,+0.0,+0.0
# iter:  32 07:11:56   -12.310326c  -5.39  -5.23c  +1.4,+0.0,-0.0
# iter:  33 07:12:27   -12.310322c  -5.52  -5.28c  +1.4,+0.0,-0.0
# iter:  34 07:12:58   -12.310316c  -5.65  -5.23c  +1.4,+0.0,-0.0
# iter:  35 07:13:29   -12.310319c  -5.80  -5.22c  +1.4,+0.0,+0.0
# iter:  36 07:14:00   -12.310328c  -5.94  -5.24c  +1.4,+0.0,+0.0
# iter:  37 07:14:31   -12.310333c  -6.07  -5.33c  +1.4,+0.0,+0.0
# iter:  38 07:15:02   -12.310331c  -6.21  -5.43c  +1.4,+0.0,+0.0
# iter:  39 07:15:34   -12.310332c  -6.34  -5.58c  +1.4,+0.0,+0.0
# iter:  40 07:16:05   -12.310336c  -6.48  -5.67c  +1.4,+0.0,+0.0
# iter:  41 07:16:36   -12.310336c  -6.62  -5.62c  +1.4,+0.0,+0.0
# iter:  42 07:17:07   -12.310335c  -6.76  -5.95c  +1.4,+0.0,+0.0
# iter:  43 07:17:38   -12.310335c  -6.90  -6.18c  +1.4,+0.0,+0.0
# iter:  44 07:18:10   -12.310335c  -7.04  -6.22c  +1.4,+0.0,+0.0
# iter:  45 07:18:41   -12.310333c  -7.19  -6.24c  +1.4,+0.0,+0.0
# iter:  46 07:19:12   -12.310333c  -7.33  -6.57c  +1.4,+0.0,+0.0
# iter:  47 07:19:43   -12.310333c  -7.47c -6.69c  +1.4,+0.0,+0.0
scf_steps: 47
energies:  # eV
  coulomb:          -7.646398
  zero:              0.067667
  xc:              -14.889137
  external:          0.000000
  kinetic:          10.176670
  spinorbit:         0.000000
  entropy:          -0.038272
  total:           -12.329469
  extrapolated:    -12.310333

dipole moment: [-3.853054, -6.672869, -3.364768]  # |e|*Ang

total magnetic moment: [1.429043, 0.017390, 0.000000]

local magnetic moments: [
  [ 1.124273, -0.006889,  0.000000],  # Ni 0
  [ 0.040315, -0.096431,  0.000000],  # I  1
  [ 0.040261, -0.096454,  0.000000]]  # I  2


Fermi level: -1.188 eV

kpt = [-0.467, -0.467, 0.000], weight = 0.004:
  Band      eig [eV]   occ [0-1]
     0       -64.951       1.000
   ...
    22        -3.054       1.000
    23        -2.902       1.000
    24        -2.808       1.000
    25        -2.290       1.000
    26        -2.143       1.000
    27        -2.099       1.000
    28        -1.808       0.998
    29        -1.673       0.992
    30        -0.889       0.048
    31        -0.770       0.015
    32         1.967       0.000
    33         2.553       0.000
    34         4.267       0.000
    35         4.748       0.000
    36         4.826       0.000
    37         4.840       0.000
   ...
    39         5.284       0.000

kpt = [-0.467, -0.400, 0.000], weight = 0.004:
  Band      eig [eV]   occ [0-1]
     0       -64.951       1.000
   ...
    22        -3.038       1.000
    23        -2.896       1.000
    24        -2.873       1.000
    25        -2.349       1.000
    26        -2.149       1.000
    27        -2.131       1.000
    28        -1.726       0.995
    29        -1.647       0.990
    30        -0.802       0.021
    31        -0.750       0.012
    32         1.672       0.000
    33         2.595       0.000
    34         3.769       0.000
    35         4.521       0.000
    36         4.728       0.000
    37         4.786       0.000
   ...
    39         5.802       0.000

kpt = [-0.467, -0.333, 0.000], weight = 0.004:
  Band      eig [eV]   occ [0-1]
     0       -64.951       1.000
   ...
    22        -3.010       1.000
    23        -2.917       1.000
    24        -2.853       1.000
    25        -2.417       1.000
    26        -2.157       1.000
    27        -2.141       1.000
    28        -1.721       0.995
    29        -1.537       0.970
    30        -0.849       0.033
    31        -0.676       0.006
    32         1.642       0.000
    33         2.525       0.000
    34         3.664       0.000
    35         4.397       0.000
    36         4.749       0.000
    37         4.911       0.000
   ...
    39         5.838       0.000
(only showing first 3 out of 225 k-points)

Gap: 0.378 eV
Transition (v -> c):
  (s=0, k=67, n=29, [-0.20, 0.00, 0.00]) -> (s=0, k=168, n=30, [0.27, -0.27, 0.00])
# Writing to Band_Conv/gsq-76.gpw (mode='')

