#  __  _  _
# | _ |_)|_||  |
# |__||  | ||/\| - 24.1.0

User:   s194113@n-62-29-10
Date:   Tue May  7 03:58:39 2024
Arch:   x86_64
Pid:    14705
CWD:    /work3/s194113/10302/10302_NM/NiI2
Python: 3.8.5
gpaw:   /zhome/87/8/147075/venv-name/gpaw/gpaw (10808453a8)
_gpaw:  /zhome/87/8/147075/venv-name/gpaw/
        _gpaw.cpython-38-x86_64-linux-gnu.so (10808453a8)
ase:    /zhome/87/8/147075/venv-name/ase/ase (version 3.23.0b1-c36115a2db)
numpy:  /zhome/87/8/147075/venv-name/lib/python3.8/site-packages/numpy (version 1.24.4)
scipy:  /zhome/87/8/147075/venv-name/lib/python3.8/site-packages/scipy (version 1.10.1)
libxc:  4.3.4
units:  Angstrom and eV
cores: 18
OpenMP: False
OMP_NUM_THREADS: 1

---
input parameters:
  kpts: 
    density: 8.0
    gamma: True
  magmoms: [[1.28782608, 0, 0], [0.19870794, 0, 0], [0.19870794, 0, 0]]
  mixer: 
    backend: 'pulay'
    beta: 0.05
    method: 'sum'
    nmaxold: 5
    weight: 100
  mode: 
    name: 'pw'
    ecut: 800.0
    qspiral: array([0.24031008, 0.24031008, 0.        ])
  parallel: 
    kpt: None
    domain: 1
    band: 1
    order: 'kdb'
    stridebands: False
    augment_grids: False
    sl_auto: False
    sl_default: None
    sl_diagonalize: None
    sl_inverse_cholesky: None
    sl_lcao: None
    sl_lrtddft: None
    use_elpa: False
    elpasolver: '2stage'
    buffer_size: None
    gpu: False
  symmetry: 
    point_group: False
    time_reversal: False
  xc: 
    name: 'LDA'

#                        
#                        
#                        
#                        
#                        
#              I         
#                        
#        Ni              
#          I             
#                        
#                        
#                        
#                        
#                        

atoms: [  # symbols, positions [Ang] and initial magnetic moments
  [ Ni, [   0.000000,    0.000000,    7.513573], [ 1.288,  0.000,  0.000]], # 0
  [  I, [   1.984831,    1.145943,    9.027147], [ 0.199,  0.000,  0.000]], # 1
  [  I, [   0.000000,    2.291885,    6.000000], [ 0.199,  0.000,  0.000]]] # 2

cell: [  # Ang
#     x            y            z
  [   3.969662,    0.000000,    0.000000],
  [  -1.984831,    3.437828,    0.000000],
  [   0.000000,    0.000000,   15.027147]]

periodic: [True      , True      , False     ]
lengths:  [  3.969662,   3.969662,  15.027147]  # Ang
angles:   [ 90.000000,  90.000000, 120.000000]

symmetry:
  number of symmetries: 1
  rotations: [
    [[ 1,  0,  0], [ 0,  1,  0], [ 0,  0,  1]]]

bz sampling:
  number of bz points: 225
  number of ibz points: 225
  monkhorst-pack size: [15, 15, 1]
  monkhorst-pack shift: [0, 0, 0]
  points and weights: [
    [[ -0.46666667,  -0.46666667,   0.00000000], 0.00444444],  # 0
    [[ -0.46666667,  -0.40000000,   0.00000000], 0.00444444],  # 1
    [[ -0.46666667,  -0.33333333,   0.00000000], 0.00444444],  # 2
    [[ -0.46666667,  -0.26666667,   0.00000000], 0.00444444],  # 3
    [[ -0.46666667,  -0.20000000,   0.00000000], 0.00444444],  # 4
    [[ -0.46666667,  -0.13333333,   0.00000000], 0.00444444],  # 5
    [[ -0.46666667,  -0.06666667,   0.00000000], 0.00444444],  # 6
    [[ -0.46666667,   0.00000000,   0.00000000], 0.00444444],  # 7
    [[ -0.46666667,   0.06666667,   0.00000000], 0.00444444],  # 8
    [[ -0.46666667,   0.13333333,   0.00000000], 0.00444444],  # 9
    # ...
    [[  0.46666667,   0.46666667,   0.00000000], 0.00444444]]  # 224

plane wave coefficients: 10580
cutoff: 800.0 eV

spin-components: 4  # (non-collinear spins)
bands: 40
valence electrons: 30.0
spin-degeneracy: 1
dtype: complex128

memory:
    wave functions: 3_041_856_000  # bytes  (168_992_000 per core)

parallelization:
    kpt:    18
    domain: 1
    band:   1

density:
  components: 4
  grid points: [ 27  27 100]
  charge: 0.0  # |e|

potential:
  grid points: [ 27  27 100]

species:
  Ni:
    name: Nickel
    id: 1802175e8de9ea26d9f4394ec1a7d564
    Z: 28.0
    valence: 16
    core: 12
    charge: 0.0
    file: /zhome/86/d/1666/PAW/gpaw-setups-0.9.20000/Ni.LDA.gz
    compensation charges: {type: gauss,
                           rc: 0.36,
                           lmax: 2}
    cutoffs: {filter: 2.14,
              core: 1.98}
    valence states:
      #              energy  rcut
      - 4s(2.00)    -5.858   1.164
      - 3p(6.00)   -71.266   1.207
      - 4p(0.00)    -1.338   1.207
      - 3d(8.00)    -9.141   1.138
      -  s          21.353   1.164
      -  d          18.071   1.138
  
    # Using partial waves for Ni as LCAO basis

  I:
    name: Iodine
    id: b559721c0c096a7b4c8fc0e0f4de5cf4
    Z: 53.0
    valence: 7
    core: 46
    charge: 0.0
    file: /zhome/86/d/1666/PAW/gpaw-setups-0.9.20000/I.LDA.gz
    compensation charges: {type: gauss,
                           rc: 0.37,
                           lmax: 2}
    cutoffs: {filter: 2.06,
              core: 2.90}
    valence states:
      #              energy  rcut
      - 5s(2.00)   -17.626   1.164
      - 5p(5.00)    -7.241   1.164
      -  s           9.585   1.164
      -  p          19.970   1.164
      -  d           0.000   1.164
  
    # Using partial waves for I as LCAO basis

Reference energy: -428067.566327  # eV

eigensolver:
  name: 'Davidson'
  niter: 2
  converge_bands: 'occupied'
Density mixing:
  Method: sum
  Backend: pulay
  Linear mixing parameter: 0.05
  old densities: 5
  Damping of long wavelength oscillations: 100
occupation numbers:
  Fermi-Dirac:
    width: 0.1000  # eV
  

poisson solver:
  ecut: 6400.0  # eV

xc functional:
  name: None

convergence criteria:
- Maximum [total energy] change in last 3 cyles: 0.0005 eV / valence electron
- Maximum integral of absolute [dens]ity change: 0.0001 electrons / valence electron
- Maximum integral of absolute [eigenst]ate change: 4e-08 eV^2 / valence electron
maximum number of iterations: 333

#      iter     time        total  log10-change:
#                          energy   eigst   dens
# iter:   1 03:59:27   -13.208136                  +1.7,+0.0,+0.0
# iter:   2 03:59:57   -12.544509   +0.20  -1.31   +1.2,-0.0,+0.0
# iter:   3 04:00:28   -12.213567   -0.41  -1.46   +1.1,-0.0,+0.0
# iter:   4 04:00:59   -12.278575   -0.99  -1.68   +1.2,-0.0,+0.0
# iter:   5 04:01:30   -12.526027   -1.16  -1.67   +1.2,-0.0,+0.0
# iter:   6 04:02:01   -12.303577   -1.38  -1.76   +1.2,+0.0,-0.0
# iter:   7 04:02:32   -12.305460   -1.66  -2.22   +1.2,+0.0,-0.0
# iter:   8 04:03:03   -12.293073c  -1.82  -2.31   +1.2,+0.0,-0.0
# iter:   9 04:03:33   -12.294544c  -2.00  -2.76   +1.2,+0.0,-0.0
# iter:  10 04:04:04   -12.294674c  -2.18  -3.03   +1.2,+0.0,-0.0
# iter:  11 04:04:35   -12.295830c  -2.31  -3.12   +1.2,+0.0,-0.0
# iter:  12 04:05:06   -12.296000c  -2.48  -3.08   +1.2,+0.0,+0.0
# iter:  13 04:05:37   -12.296475c  -2.62  -3.71   +1.2,+0.0,+0.0
# iter:  14 04:06:08   -12.296335c  -2.75  -3.53   +1.2,+0.0,+0.0
# iter:  15 04:06:39   -12.296558c  -2.90  -3.70   +1.3,+0.0,-0.0
# iter:  16 04:07:10   -12.296713c  -3.03  -4.04c  +1.3,+0.0,-0.0
# iter:  17 04:07:41   -12.296677c  -3.17  -3.98   +1.3,+0.0,+0.0
# iter:  18 04:08:12   -12.296699c  -3.30  -4.10c  +1.3,+0.0,-0.0
# iter:  19 04:08:43   -12.296707c  -3.43  -4.07c  +1.3,+0.0,+0.0
# iter:  20 04:09:14   -12.296697c  -3.56  -4.11c  +1.3,+0.0,+0.0
# iter:  21 04:09:45   -12.296766c  -3.69  -4.08c  +1.3,+0.0,-0.0
# iter:  22 04:10:17   -12.296824c  -3.82  -4.16c  +1.3,+0.0,-0.0
# iter:  23 04:10:48   -12.297056c  -3.95  -4.19c  +1.3,+0.0,-0.0
# iter:  24 04:11:19   -12.297129c  -4.08  -4.42c  +1.3,+0.0,-0.0
# iter:  25 04:11:50   -12.297137c  -4.21  -4.55c  +1.3,+0.0,-0.0
# iter:  26 04:12:21   -12.297156c  -4.34  -4.57c  +1.3,+0.0,-0.0
# iter:  27 04:12:52   -12.297234c  -4.47  -4.60c  +1.3,+0.0,-0.0
# iter:  28 04:13:23   -12.297234c  -4.61  -4.90c  +1.3,+0.0,-0.0
# iter:  29 04:13:54   -12.297234c  -4.74  -4.92c  +1.3,+0.0,-0.0
# iter:  30 04:14:25   -12.297255c  -4.87  -4.93c  +1.3,+0.0,-0.0
# iter:  31 04:14:56   -12.297262c  -5.00  -4.99c  +1.3,+0.0,-0.0
# iter:  32 04:15:27   -12.297273c  -5.13  -5.08c  +1.3,+0.0,-0.0
# iter:  33 04:15:58   -12.297284c  -5.26  -5.37c  +1.3,+0.0,-0.0
# iter:  34 04:16:29   -12.297291c  -5.39  -5.47c  +1.3,+0.0,-0.0
# iter:  35 04:17:00   -12.297295c  -5.53  -5.50c  +1.3,+0.0,-0.0
# iter:  36 04:17:30   -12.297292c  -5.66  -5.57c  +1.3,+0.0,-0.0
# iter:  37 04:18:01   -12.297293c  -5.79  -5.66c  +1.3,+0.0,-0.0
# iter:  38 04:18:32   -12.297293c  -5.92  -5.79c  +1.3,+0.0,-0.0
# iter:  39 04:19:03   -12.297296c  -6.06  -6.10c  +1.3,+0.0,-0.0
# iter:  40 04:19:34   -12.297297c  -6.20  -6.19c  +1.3,+0.0,-0.0
# iter:  41 04:20:05   -12.297297c  -6.33  -6.23c  +1.3,+0.0,-0.0
# iter:  42 04:20:37   -12.297297c  -6.47  -6.36c  +1.3,+0.0,-0.0
# iter:  43 04:21:08   -12.297297c  -6.61  -6.34c  +1.3,+0.0,-0.0
# iter:  44 04:21:39   -12.297297c  -6.76  -6.33c  +1.3,+0.0,-0.0
# iter:  45 04:22:10   -12.297298c  -6.90  -6.36c  +1.3,+0.0,-0.0
# iter:  46 04:22:41   -12.297298c  -7.04  -6.40c  +1.3,+0.0,-0.0
# iter:  47 04:23:12   -12.297299c  -7.18  -6.41c  +1.3,+0.0,-0.0
# iter:  48 04:23:43   -12.297299c  -7.32  -6.41c  +1.3,+0.0,-0.0
# iter:  49 04:24:14   -12.297300c  -7.47c -6.46c  +1.3,+0.0,-0.0
scf_steps: 49
energies:  # eV
  coulomb:          -7.684595
  zero:              0.067615
  xc:              -14.882481
  external:          0.000000
  kinetic:          10.223743
  spinorbit:         0.000000
  entropy:          -0.043165
  total:           -12.318883
  extrapolated:    -12.297300

dipole moment: [-3.687385, -6.385914, -2.123629]  # |e|*Ang

total magnetic moment: [1.263033, 0.012286, -0.000000]

local magnetic moments: [
  [ 1.116071, -0.004668, -0.000000],  # Ni 0
  [ 0.003711, -0.064721, -0.000000],  # I  1
  [ 0.003636, -0.064726, -0.000000]]  # I  2


Fermi level: -1.194 eV

kpt = [-0.467, -0.467, 0.000], weight = 0.004:
  Band      eig [eV]   occ [0-1]
     0       -64.944       1.000
   ...
    22        -3.040       1.000
    23        -2.853       1.000
    24        -2.779       1.000
    25        -2.307       1.000
    26        -2.135       1.000
    27        -2.086       1.000
    28        -1.855       0.999
    29        -1.727       0.995
    30        -0.967       0.093
    31        -0.835       0.027
    32         2.259       0.000
    33         2.600       0.000
    34         4.655       0.000
    35         4.819       0.000
    36         4.948       0.000
    37         4.968       0.000
   ...
    39         5.244       0.000

kpt = [-0.467, -0.400, 0.000], weight = 0.004:
  Band      eig [eV]   occ [0-1]
     0       -64.944       1.000
   ...
    22        -3.003       1.000
    23        -2.865       1.000
    24        -2.825       1.000
    25        -2.377       1.000
    26        -2.157       1.000
    27        -2.127       1.000
    28        -1.735       0.996
    29        -1.663       0.991
    30        -0.852       0.032
    31        -0.825       0.024
    32         1.919       0.000
    33         2.581       0.000
    34         4.159       0.000
    35         4.687       0.000
    36         4.739       0.000
    37         4.868       0.000
   ...
    39         5.428       0.000

kpt = [-0.467, -0.333, 0.000], weight = 0.004:
  Band      eig [eV]   occ [0-1]
     0       -64.944       1.000
   ...
    22        -2.978       1.000
    23        -2.901       1.000
    24        -2.838       1.000
    25        -2.460       1.000
    26        -2.192       1.000
    27        -2.129       1.000
    28        -1.698       0.994
    29        -1.500       0.955
    30        -0.872       0.039
    31        -0.684       0.006
    32         1.689       0.000
    33         2.481       0.000
    34         3.736       0.000
    35         4.423       0.000
    36         4.519       0.000
    37         4.930       0.000
   ...
    39         5.527       0.000
(only showing first 3 out of 225 k-points)

Gap: 0.355 eV
Transition (v -> c):
  (s=0, k=143, n=29, [0.13, 0.07, 0.00]) -> (s=0, k=210, n=30, [0.47, -0.47, 0.00])
# Writing to Band_Conv/gsq-69.gpw (mode='')

