#  __  _  _
# | _ |_)|_||  |
# |__||  | ||/\| - 24.1.0

User:   s194113@n-62-29-10
Date:   Mon May  6 16:47:42 2024
Arch:   x86_64
Pid:    14705
CWD:    /work3/s194113/10302/10302_NM/NiI2
Python: 3.8.5
gpaw:   /zhome/87/8/147075/venv-name/gpaw/gpaw (10808453a8)
_gpaw:  /zhome/87/8/147075/venv-name/gpaw/
        _gpaw.cpython-38-x86_64-linux-gnu.so (10808453a8)
ase:    /zhome/87/8/147075/venv-name/ase/ase (version 3.23.0b1-c36115a2db)
numpy:  /zhome/87/8/147075/venv-name/lib/python3.8/site-packages/numpy (version 1.24.4)
scipy:  /zhome/87/8/147075/venv-name/lib/python3.8/site-packages/scipy (version 1.10.1)
libxc:  4.3.4
units:  Angstrom and eV
cores: 18
OpenMP: False
OMP_NUM_THREADS: 1

---
input parameters:
  kpts: 
    density: 8.0
    gamma: True
  magmoms: [[1.28782608, 0, 0], [0.19870794, 0, 0], [0.19870794, 0, 0]]
  mixer: 
    backend: 'pulay'
    beta: 0.05
    method: 'sum'
    nmaxold: 5
    weight: 100
  mode: 
    name: 'pw'
    ecut: 800.0
    qspiral: array([0.43650794, 0.12698413, 0.        ])
  parallel: 
    kpt: None
    domain: 1
    band: 1
    order: 'kdb'
    stridebands: False
    augment_grids: False
    sl_auto: False
    sl_default: None
    sl_diagonalize: None
    sl_inverse_cholesky: None
    sl_lcao: None
    sl_lrtddft: None
    use_elpa: False
    elpasolver: '2stage'
    buffer_size: None
    gpu: False
  symmetry: 
    point_group: False
    time_reversal: False
  xc: 
    name: 'LDA'

#                        
#                        
#                        
#                        
#                        
#              I         
#                        
#        Ni              
#          I             
#                        
#                        
#                        
#                        
#                        

atoms: [  # symbols, positions [Ang] and initial magnetic moments
  [ Ni, [   0.000000,    0.000000,    7.513573], [ 1.288,  0.000,  0.000]], # 0
  [  I, [   1.984831,    1.145943,    9.027147], [ 0.199,  0.000,  0.000]], # 1
  [  I, [   0.000000,    2.291885,    6.000000], [ 0.199,  0.000,  0.000]]] # 2

cell: [  # Ang
#     x            y            z
  [   3.969662,    0.000000,    0.000000],
  [  -1.984831,    3.437828,    0.000000],
  [   0.000000,    0.000000,   15.027147]]

periodic: [True      , True      , False     ]
lengths:  [  3.969662,   3.969662,  15.027147]  # Ang
angles:   [ 90.000000,  90.000000, 120.000000]

symmetry:
  number of symmetries: 1
  rotations: [
    [[ 1,  0,  0], [ 0,  1,  0], [ 0,  0,  1]]]

bz sampling:
  number of bz points: 225
  number of ibz points: 225
  monkhorst-pack size: [15, 15, 1]
  monkhorst-pack shift: [0, 0, 0]
  points and weights: [
    [[ -0.46666667,  -0.46666667,   0.00000000], 0.00444444],  # 0
    [[ -0.46666667,  -0.40000000,   0.00000000], 0.00444444],  # 1
    [[ -0.46666667,  -0.33333333,   0.00000000], 0.00444444],  # 2
    [[ -0.46666667,  -0.26666667,   0.00000000], 0.00444444],  # 3
    [[ -0.46666667,  -0.20000000,   0.00000000], 0.00444444],  # 4
    [[ -0.46666667,  -0.13333333,   0.00000000], 0.00444444],  # 5
    [[ -0.46666667,  -0.06666667,   0.00000000], 0.00444444],  # 6
    [[ -0.46666667,   0.00000000,   0.00000000], 0.00444444],  # 7
    [[ -0.46666667,   0.06666667,   0.00000000], 0.00444444],  # 8
    [[ -0.46666667,   0.13333333,   0.00000000], 0.00444444],  # 9
    # ...
    [[  0.46666667,   0.46666667,   0.00000000], 0.00444444]]  # 224

plane wave coefficients: 10580
cutoff: 800.0 eV

spin-components: 4  # (non-collinear spins)
bands: 40
valence electrons: 30.0
spin-degeneracy: 1
dtype: complex128

memory:
    wave functions: 3_041_856_000  # bytes  (168_992_000 per core)

parallelization:
    kpt:    18
    domain: 1
    band:   1

density:
  components: 4
  grid points: [ 27  27 100]
  charge: 0.0  # |e|

potential:
  grid points: [ 27  27 100]

species:
  Ni:
    name: Nickel
    id: 1802175e8de9ea26d9f4394ec1a7d564
    Z: 28.0
    valence: 16
    core: 12
    charge: 0.0
    file: /zhome/86/d/1666/PAW/gpaw-setups-0.9.20000/Ni.LDA.gz
    compensation charges: {type: gauss,
                           rc: 0.36,
                           lmax: 2}
    cutoffs: {filter: 2.14,
              core: 1.98}
    valence states:
      #              energy  rcut
      - 4s(2.00)    -5.858   1.164
      - 3p(6.00)   -71.266   1.207
      - 4p(0.00)    -1.338   1.207
      - 3d(8.00)    -9.141   1.138
      -  s          21.353   1.164
      -  d          18.071   1.138
  
    # Using partial waves for Ni as LCAO basis

  I:
    name: Iodine
    id: b559721c0c096a7b4c8fc0e0f4de5cf4
    Z: 53.0
    valence: 7
    core: 46
    charge: 0.0
    file: /zhome/86/d/1666/PAW/gpaw-setups-0.9.20000/I.LDA.gz
    compensation charges: {type: gauss,
                           rc: 0.37,
                           lmax: 2}
    cutoffs: {filter: 2.06,
              core: 2.90}
    valence states:
      #              energy  rcut
      - 5s(2.00)   -17.626   1.164
      - 5p(5.00)    -7.241   1.164
      -  s           9.585   1.164
      -  p          19.970   1.164
      -  d           0.000   1.164
  
    # Using partial waves for I as LCAO basis

Reference energy: -428067.566327  # eV

eigensolver:
  name: 'Davidson'
  niter: 2
  converge_bands: 'occupied'
Density mixing:
  Method: sum
  Backend: pulay
  Linear mixing parameter: 0.05
  old densities: 5
  Damping of long wavelength oscillations: 100
occupation numbers:
  Fermi-Dirac:
    width: 0.1000  # eV
  

poisson solver:
  ecut: 6400.0  # eV

xc functional:
  name: None

convergence criteria:
- Maximum [total energy] change in last 3 cyles: 0.0005 eV / valence electron
- Maximum integral of absolute [dens]ity change: 0.0001 electrons / valence electron
- Maximum integral of absolute [eigenst]ate change: 4e-08 eV^2 / valence electron
maximum number of iterations: 333

#      iter     time        total  log10-change:
#                          energy   eigst   dens
# iter:   1 16:48:29   -12.835749                  +1.7,+0.0,+0.0
# iter:   2 16:49:00   -12.439205   +0.36  -1.31   +1.1,-0.0,-0.0
# iter:   3 16:49:31   -12.167896   -0.29  -1.46   +1.0,-0.0,-0.0
# iter:   4 16:50:02   -12.223285   -0.83  -1.68   +1.0,-0.0,-0.0
# iter:   5 16:50:32   -12.555923   -1.00  -1.67   +1.0,-0.0,-0.0
# iter:   6 16:51:03   -12.260881   -1.22  -1.70   +1.0,-0.0,-0.0
# iter:   7 16:51:34   -12.269867   -1.50  -2.25   +1.0,+0.0,-0.0
# iter:   8 16:52:04   -12.260468c  -1.66  -2.32   +1.0,+0.0,-0.0
# iter:   9 16:52:35   -12.262147c  -1.82  -2.68   +1.1,+0.0,-0.0
# iter:  10 16:53:05   -12.263004c  -1.99  -3.04   +1.1,+0.0,-0.0
# iter:  11 16:53:36   -12.264176c  -2.11  -3.06   +1.1,+0.0,-0.0
# iter:  12 16:54:07   -12.265018c  -2.27  -2.94   +1.1,+0.0,-0.0
# iter:  13 16:54:37   -12.265631c  -2.41  -3.59   +1.1,+0.0,-0.0
# iter:  14 16:55:08   -12.265590c  -2.54  -3.58   +1.1,+0.0,-0.0
# iter:  15 16:55:38   -12.265970c  -2.68  -3.71   +1.1,+0.0,-0.0
# iter:  16 16:56:09   -12.266107c  -2.81  -3.89   +1.1,+0.0,-0.0
# iter:  17 16:56:40   -12.266220c  -2.94  -3.89   +1.1,+0.0,-0.0
# iter:  18 16:57:10   -12.266591c  -3.06  -3.93   +1.1,+0.0,-0.0
# iter:  19 16:57:41   -12.266601c  -3.20  -3.96   +1.1,+0.0,-0.0
# iter:  20 16:58:12   -12.266705c  -3.32  -4.01c  +1.1,+0.0,-0.0
# iter:  21 16:58:42   -12.267316c  -3.45  -4.14c  +1.1,+0.0,-0.0
# iter:  22 16:59:13   -12.267303c  -3.58  -4.54c  +1.1,+0.0,-0.0
# iter:  23 16:59:44   -12.267334c  -3.72  -4.63c  +1.1,+0.0,-0.0
# iter:  24 17:00:15   -12.267362c  -3.85  -4.68c  +1.1,+0.0,-0.0
# iter:  25 17:00:46   -12.267313c  -3.98  -4.72c  +1.1,+0.0,-0.0
# iter:  26 17:01:17   -12.267314c  -4.11  -4.65c  +1.1,+0.0,-0.0
# iter:  27 17:01:48   -12.267335c  -4.24  -4.68c  +1.1,+0.0,-0.0
# iter:  28 17:02:18   -12.267312c  -4.37  -4.67c  +1.1,+0.0,-0.0
# iter:  29 17:02:49   -12.267381c  -4.51  -4.64c  +1.1,+0.0,-0.0
# iter:  30 17:03:20   -12.267355c  -4.64  -4.80c  +1.1,+0.0,-0.0
# iter:  31 17:03:51   -12.267370c  -4.78  -4.78c  +1.1,+0.0,-0.0
# iter:  32 17:04:22   -12.267392c  -4.91  -4.78c  +1.1,+0.0,-0.0
# iter:  33 17:04:53   -12.267397c  -5.04  -4.81c  +1.1,+0.0,-0.0
# iter:  34 17:05:24   -12.267434c  -5.17  -4.84c  +1.1,+0.0,-0.0
# iter:  35 17:05:55   -12.267421c  -5.31  -5.13c  +1.1,+0.0,-0.0
# iter:  36 17:06:27   -12.267434c  -5.44  -5.33c  +1.1,+0.0,-0.0
# iter:  37 17:06:58   -12.267427c  -5.57  -5.35c  +1.1,+0.0,-0.0
# iter:  38 17:07:29   -12.267441c  -5.71  -5.32c  +1.1,+0.0,-0.0
# iter:  39 17:08:00   -12.267439c  -5.84  -5.36c  +1.1,+0.0,-0.0
# iter:  40 17:08:31   -12.267442c  -5.98  -5.32c  +1.1,+0.0,-0.0
# iter:  41 17:09:02   -12.267453c  -6.11  -5.36c  +1.1,+0.0,-0.0
# iter:  42 17:09:33   -12.267460c  -6.25  -5.39c  +1.1,+0.0,-0.0
# iter:  43 17:10:04   -12.267468c  -6.39  -5.42c  +1.1,+0.0,-0.0
# iter:  44 17:10:35   -12.267473c  -6.53  -5.61c  +1.1,+0.0,-0.0
# iter:  45 17:11:06   -12.267472c  -6.66  -5.66c  +1.1,+0.0,-0.0
# iter:  46 17:11:37   -12.267471c  -6.80  -5.99c  +1.1,+0.0,-0.0
# iter:  47 17:12:08   -12.267470c  -6.95  -6.07c  +1.1,+0.0,-0.0
# iter:  48 17:12:38   -12.267469c  -7.09  -6.28c  +1.1,+0.0,-0.0
# iter:  49 17:13:09   -12.267469c  -7.23  -6.44c  +1.1,+0.0,-0.0
# iter:  50 17:13:41   -12.267469c  -7.37  -6.46c  +1.1,+0.0,-0.0
# iter:  51 17:14:11   -12.267468c  -7.52c -6.53c  +1.1,+0.0,-0.0
scf_steps: 51
energies:  # eV
  coulomb:          -7.929648
  zero:              0.067298
  xc:              -14.900938
  external:          0.000000
  kinetic:          10.525742
  spinorbit:         0.000000
  entropy:          -0.059844
  total:           -12.297390
  extrapolated:    -12.267468

dipole moment: [-3.436115, -6.182916, -0.705104]  # |e|*Ang

total magnetic moment: [1.118551, 0.002015, -0.000000]

local magnetic moments: [
  [ 1.112564, -0.000643, -0.000000],  # Ni 0
  [-0.049439,  0.000032, -0.000000],  # I  1
  [ 0.045546, -0.019228, -0.000000]]  # I  2


Fermi level: -1.201 eV

kpt = [-0.467, -0.467, 0.000], weight = 0.004:
  Band      eig [eV]   occ [0-1]
     0       -64.951       1.000
   ...
    22        -3.028       1.000
    23        -2.884       1.000
    24        -2.724       1.000
    25        -2.297       1.000
    26        -2.159       1.000
    27        -2.082       1.000
    28        -1.920       0.999
    29        -1.673       0.991
    30        -1.042       0.169
    31        -0.799       0.018
    32         2.474       0.000
    33         2.612       0.000
    34         4.349       0.000
    35         4.640       0.000
    36         5.049       0.000
    37         5.239       0.000
   ...
    39         5.809       0.000

kpt = [-0.467, -0.400, 0.000], weight = 0.004:
  Band      eig [eV]   occ [0-1]
     0       -64.951       1.000
   ...
    22        -2.963       1.000
    23        -2.903       1.000
    24        -2.734       1.000
    25        -2.350       1.000
    26        -2.159       1.000
    27        -2.098       1.000
    28        -1.805       0.998
    29        -1.659       0.990
    30        -0.980       0.099
    31        -0.792       0.016
    32         2.336       0.000
    33         2.573       0.000
    34         4.266       0.000
    35         4.566       0.000
    36         4.799       0.000
    37         5.128       0.000
   ...
    39         5.714       0.000

kpt = [-0.467, -0.333, 0.000], weight = 0.004:
  Band      eig [eV]   occ [0-1]
     0       -64.951       1.000
   ...
    22        -2.938       1.000
    23        -2.876       1.000
    24        -2.728       1.000
    25        -2.423       1.000
    26        -2.142       1.000
    27        -2.089       1.000
    28        -1.778       0.997
    29        -1.536       0.966
    30        -0.989       0.107
    31        -0.718       0.008
    32         2.130       0.000
    33         2.660       0.000
    34         4.002       0.000
    35         4.225       0.000
    36         4.483       0.000
    37         4.992       0.000
   ...
    39         5.506       0.000
(only showing first 3 out of 225 k-points)

Gap: 0.184 eV
Transition (v -> c):
  (s=0, k=52, n=29, [-0.27, 0.00, 0.00]) -> (s=0, k=119, n=30, [0.00, 0.47, 0.00])
# Writing to Band_Conv/gsq-44.gpw (mode='')

