#  __  _  _
# | _ |_)|_||  |
# |__||  | ||/\| - 24.1.0

User:   s194113@n-62-29-10
Date:   Mon May  6 15:02:56 2024
Arch:   x86_64
Pid:    14705
CWD:    /work3/s194113/10302/10302_NM/NiI2
Python: 3.8.5
gpaw:   /zhome/87/8/147075/venv-name/gpaw/gpaw (10808453a8)
_gpaw:  /zhome/87/8/147075/venv-name/gpaw/
        _gpaw.cpython-38-x86_64-linux-gnu.so (10808453a8)
ase:    /zhome/87/8/147075/venv-name/ase/ase (version 3.23.0b1-c36115a2db)
numpy:  /zhome/87/8/147075/venv-name/lib/python3.8/site-packages/numpy (version 1.24.4)
scipy:  /zhome/87/8/147075/venv-name/lib/python3.8/site-packages/scipy (version 1.10.1)
libxc:  4.3.4
units:  Angstrom and eV
cores: 18
OpenMP: False
OMP_NUM_THREADS: 1

---
input parameters:
  kpts: 
    density: 8.0
    gamma: True
  magmoms: [[1.28782608, 0, 0], [0.19870794, 0, 0], [0.19870794, 0, 0]]
  mixer: 
    backend: 'pulay'
    beta: 0.05
    method: 'sum'
    nmaxold: 5
    weight: 100
  mode: 
    name: 'pw'
    ecut: 800.0
    qspiral: array([0.46825397, 0.06349206, 0.        ])
  parallel: 
    kpt: None
    domain: 1
    band: 1
    order: 'kdb'
    stridebands: False
    augment_grids: False
    sl_auto: False
    sl_default: None
    sl_diagonalize: None
    sl_inverse_cholesky: None
    sl_lcao: None
    sl_lrtddft: None
    use_elpa: False
    elpasolver: '2stage'
    buffer_size: None
    gpu: False
  symmetry: 
    point_group: False
    time_reversal: False
  xc: 
    name: 'LDA'

#                        
#                        
#                        
#                        
#                        
#              I         
#                        
#        Ni              
#          I             
#                        
#                        
#                        
#                        
#                        

atoms: [  # symbols, positions [Ang] and initial magnetic moments
  [ Ni, [   0.000000,    0.000000,    7.513573], [ 1.288,  0.000,  0.000]], # 0
  [  I, [   1.984831,    1.145943,    9.027147], [ 0.199,  0.000,  0.000]], # 1
  [  I, [   0.000000,    2.291885,    6.000000], [ 0.199,  0.000,  0.000]]] # 2

cell: [  # Ang
#     x            y            z
  [   3.969662,    0.000000,    0.000000],
  [  -1.984831,    3.437828,    0.000000],
  [   0.000000,    0.000000,   15.027147]]

periodic: [True      , True      , False     ]
lengths:  [  3.969662,   3.969662,  15.027147]  # Ang
angles:   [ 90.000000,  90.000000, 120.000000]

symmetry:
  number of symmetries: 1
  rotations: [
    [[ 1,  0,  0], [ 0,  1,  0], [ 0,  0,  1]]]

bz sampling:
  number of bz points: 225
  number of ibz points: 225
  monkhorst-pack size: [15, 15, 1]
  monkhorst-pack shift: [0, 0, 0]
  points and weights: [
    [[ -0.46666667,  -0.46666667,   0.00000000], 0.00444444],  # 0
    [[ -0.46666667,  -0.40000000,   0.00000000], 0.00444444],  # 1
    [[ -0.46666667,  -0.33333333,   0.00000000], 0.00444444],  # 2
    [[ -0.46666667,  -0.26666667,   0.00000000], 0.00444444],  # 3
    [[ -0.46666667,  -0.20000000,   0.00000000], 0.00444444],  # 4
    [[ -0.46666667,  -0.13333333,   0.00000000], 0.00444444],  # 5
    [[ -0.46666667,  -0.06666667,   0.00000000], 0.00444444],  # 6
    [[ -0.46666667,   0.00000000,   0.00000000], 0.00444444],  # 7
    [[ -0.46666667,   0.06666667,   0.00000000], 0.00444444],  # 8
    [[ -0.46666667,   0.13333333,   0.00000000], 0.00444444],  # 9
    # ...
    [[  0.46666667,   0.46666667,   0.00000000], 0.00444444]]  # 224

plane wave coefficients: 10580
cutoff: 800.0 eV

spin-components: 4  # (non-collinear spins)
bands: 40
valence electrons: 30.0
spin-degeneracy: 1
dtype: complex128

memory:
    wave functions: 3_041_856_000  # bytes  (168_992_000 per core)

parallelization:
    kpt:    18
    domain: 1
    band:   1

density:
  components: 4
  grid points: [ 27  27 100]
  charge: 0.0  # |e|

potential:
  grid points: [ 27  27 100]

species:
  Ni:
    name: Nickel
    id: 1802175e8de9ea26d9f4394ec1a7d564
    Z: 28.0
    valence: 16
    core: 12
    charge: 0.0
    file: /zhome/86/d/1666/PAW/gpaw-setups-0.9.20000/Ni.LDA.gz
    compensation charges: {type: gauss,
                           rc: 0.36,
                           lmax: 2}
    cutoffs: {filter: 2.14,
              core: 1.98}
    valence states:
      #              energy  rcut
      - 4s(2.00)    -5.858   1.164
      - 3p(6.00)   -71.266   1.207
      - 4p(0.00)    -1.338   1.207
      - 3d(8.00)    -9.141   1.138
      -  s          21.353   1.164
      -  d          18.071   1.138
  
    # Using partial waves for Ni as LCAO basis

  I:
    name: Iodine
    id: b559721c0c096a7b4c8fc0e0f4de5cf4
    Z: 53.0
    valence: 7
    core: 46
    charge: 0.0
    file: /zhome/86/d/1666/PAW/gpaw-setups-0.9.20000/I.LDA.gz
    compensation charges: {type: gauss,
                           rc: 0.37,
                           lmax: 2}
    cutoffs: {filter: 2.06,
              core: 2.90}
    valence states:
      #              energy  rcut
      - 5s(2.00)   -17.626   1.164
      - 5p(5.00)    -7.241   1.164
      -  s           9.585   1.164
      -  p          19.970   1.164
      -  d           0.000   1.164
  
    # Using partial waves for I as LCAO basis

Reference energy: -428067.566327  # eV

eigensolver:
  name: 'Davidson'
  niter: 2
  converge_bands: 'occupied'
Density mixing:
  Method: sum
  Backend: pulay
  Linear mixing parameter: 0.05
  old densities: 5
  Damping of long wavelength oscillations: 100
occupation numbers:
  Fermi-Dirac:
    width: 0.1000  # eV
  

poisson solver:
  ecut: 6400.0  # eV

xc functional:
  name: None

convergence criteria:
- Maximum [total energy] change in last 3 cyles: 0.0005 eV / valence electron
- Maximum integral of absolute [dens]ity change: 0.0001 electrons / valence electron
- Maximum integral of absolute [eigenst]ate change: 4e-08 eV^2 / valence electron
maximum number of iterations: 333

#      iter     time        total  log10-change:
#                          energy   eigst   dens
# iter:   1 15:03:44   -12.871703                  +1.7,+0.0,+0.0
# iter:   2 15:04:16   -12.439872   +0.35  -1.31   +1.1,-0.0,+0.0
# iter:   3 15:04:48   -12.160474   -0.30  -1.45   +1.0,-0.0,+0.0
# iter:   4 15:05:19   -12.218192   -0.85  -1.68   +1.0,-0.0,+0.0
# iter:   5 15:05:51   -12.557695   -1.01  -1.67   +1.0,-0.0,+0.0
# iter:   6 15:06:23   -12.246629   -1.23  -1.69   +1.0,-0.0,+0.0
# iter:   7 15:06:55   -12.254003   -1.51  -2.26   +1.0,+0.0,+0.0
# iter:   8 15:07:27   -12.247567c  -1.67  -2.34   +1.0,+0.0,+0.0
# iter:   9 15:07:58   -12.249005c  -1.83  -2.65   +1.1,+0.0,+0.0
# iter:  10 15:08:30   -12.249950c  -2.00  -3.05   +1.1,+0.0,+0.0
# iter:  11 15:09:01   -12.250421c  -2.14  -3.03   +1.1,+0.0,+0.0
# iter:  12 15:09:32   -12.255144c  -2.27  -3.04   +1.1,+0.0,-0.0
# iter:  13 15:10:04   -12.255602c  -2.42  -2.77   +1.1,+0.0,+0.0
# iter:  14 15:10:35   -12.251948c  -2.49  -2.74   +1.1,+0.0,+0.0
# iter:  15 15:11:06   -12.251763c  -2.69  -3.52   +1.1,+0.0,+0.0
# iter:  16 15:11:37   -12.252563c  -2.84  -3.56   +1.1,+0.0,+0.0
# iter:  17 15:12:08   -12.252668c  -2.97  -3.54   +1.1,+0.0,+0.0
# iter:  18 15:12:40   -12.253435c  -3.09  -3.66   +1.1,+0.0,+0.0
# iter:  19 15:13:11   -12.253691c  -3.24  -3.50   +1.1,+0.0,+0.0
# iter:  20 15:13:42   -12.253888c  -3.37  -3.81   +1.1,+0.0,+0.0
# iter:  21 15:14:13   -12.254027c  -3.50  -3.84   +1.1,+0.0,+0.0
# iter:  22 15:14:45   -12.254320c  -3.63  -3.87   +1.1,+0.0,+0.0
# iter:  23 15:15:16   -12.254556c  -3.75  -3.94   +1.1,+0.0,+0.0
# iter:  24 15:15:47   -12.254745c  -3.90  -3.98   +1.1,+0.0,+0.0
# iter:  25 15:16:18   -12.254805c  -4.03  -4.18c  +1.1,+0.0,+0.0
# iter:  26 15:16:50   -12.254890c  -4.16  -4.23c  +1.1,+0.0,+0.0
# iter:  27 15:17:21   -12.254905c  -4.30  -4.19c  +1.1,+0.0,+0.0
# iter:  28 15:17:52   -12.254912c  -4.43  -4.20c  +1.1,+0.0,+0.0
# iter:  29 15:18:24   -12.254967c  -4.57  -4.48c  +1.1,+0.0,+0.0
# iter:  30 15:18:55   -12.254959c  -4.70  -4.50c  +1.1,+0.0,+0.0
# iter:  31 15:19:26   -12.254978c  -4.84  -4.51c  +1.1,+0.0,+0.0
# iter:  32 15:19:57   -12.255034c  -4.99  -4.55c  +1.1,+0.0,+0.0
# iter:  33 15:20:28   -12.255034c  -5.12  -4.52c  +1.1,+0.0,+0.0
# iter:  34 15:21:00   -12.255025c  -5.26  -4.64c  +1.1,+0.0,+0.0
# iter:  35 15:21:31   -12.255042c  -5.40  -4.70c  +1.1,+0.0,+0.0
# iter:  36 15:22:02   -12.255036c  -5.54  -4.80c  +1.1,+0.0,+0.0
# iter:  37 15:22:33   -12.255052c  -5.68  -4.91c  +1.1,+0.0,+0.0
# iter:  38 15:23:04   -12.255080c  -5.82  -4.99c  +1.1,+0.0,+0.0
# iter:  39 15:23:35   -12.255081c  -5.96  -5.01c  +1.1,+0.0,+0.0
# iter:  40 15:24:07   -12.255084c  -6.09  -5.10c  +1.1,+0.0,+0.0
# iter:  41 15:24:38   -12.255087c  -6.23  -5.18c  +1.1,+0.0,+0.0
# iter:  42 15:25:09   -12.255099c  -6.38  -5.28c  +1.1,+0.0,+0.0
# iter:  43 15:25:41   -12.255099c  -6.53  -5.57c  +1.1,+0.0,+0.0
# iter:  44 15:26:12   -12.255098c  -6.67  -5.58c  +1.1,+0.0,+0.0
# iter:  45 15:26:43   -12.255108c  -6.81  -5.64c  +1.1,+0.0,+0.0
# iter:  46 15:27:15   -12.255108c  -6.96  -6.02c  +1.1,+0.0,+0.0
# iter:  47 15:27:46   -12.255109c  -7.10  -6.21c  +1.1,+0.0,+0.0
# iter:  48 15:28:17   -12.255109c  -7.24  -6.22c  +1.1,+0.0,+0.0
# iter:  49 15:28:48   -12.255110c  -7.38  -6.25c  +1.1,+0.0,-0.0
# iter:  50 15:29:19   -12.255110c  -7.53c -6.30c  +1.1,+0.0,+0.0
scf_steps: 50
energies:  # eV
  coulomb:          -8.015385
  zero:              0.067149
  xc:              -14.907772
  external:          0.000000
  kinetic:          10.634963
  spinorbit:         0.000000
  entropy:          -0.068131
  total:           -12.289176
  extrapolated:    -12.255110

dipole moment: [-3.436033, -6.201285, -0.725553]  # |e|*Ang

total magnetic moment: [1.124441, 0.001174, 0.000000]

local magnetic moments: [
  [ 1.109472, -0.000349,  0.000000],  # Ni 0
  [-0.055347,  0.000023,  0.000000],  # I  1
  [ 0.054247, -0.010979,  0.000000]]  # I  2


Fermi level: -1.198 eV

kpt = [-0.467, -0.467, 0.000], weight = 0.004:
  Band      eig [eV]   occ [0-1]
     0       -64.950       1.000
   ...
    22        -3.019       1.000
    23        -2.909       1.000
    24        -2.696       1.000
    25        -2.278       1.000
    26        -2.179       1.000
    27        -2.082       1.000
    28        -1.922       0.999
    29        -1.625       0.986
    30        -1.057       0.197
    31        -0.764       0.013
    32         2.476       0.000
    33         2.617       0.000
    34         4.252       0.000
    35         4.495       0.000
    36         5.139       0.000
    37         5.190       0.000
   ...
    39         5.728       0.000

kpt = [-0.467, -0.400, 0.000], weight = 0.004:
  Band      eig [eV]   occ [0-1]
     0       -64.950       1.000
   ...
    22        -2.956       1.000
    23        -2.922       1.000
    24        -2.710       1.000
    25        -2.338       1.000
    26        -2.157       1.000
    27        -2.096       1.000
    28        -1.806       0.998
    29        -1.622       0.986
    30        -0.989       0.110
    31        -0.776       0.014
    32         2.341       0.000
    33         2.531       0.000
    34         4.196       0.000
    35         4.671       0.000
    36         4.714       0.000
    37         4.953       0.000
   ...
    39         5.558       0.000

kpt = [-0.467, -0.333, 0.000], weight = 0.004:
  Band      eig [eV]   occ [0-1]
     0       -64.950       1.000
   ...
    22        -2.942       1.000
    23        -2.868       1.000
    24        -2.704       1.000
    25        -2.427       1.000
    26        -2.120       1.000
    27        -2.085       1.000
    28        -1.786       0.997
    29        -1.517       0.960
    30        -1.011       0.134
    31        -0.702       0.007
    32         2.183       0.000
    33         2.602       0.000
    34         3.932       0.000
    35         4.323       0.000
    36         4.440       0.000
    37         4.911       0.000
   ...
    39         5.549       0.000
(only showing first 3 out of 225 k-points)

No gap
# Writing to Band_Conv/gsq-40.gpw (mode='')

---

timing:  # [seconds]
  Total: 4722.935  # ━━━━━━━━━━━━━━━━━━━━━━━━━━━━━━━━━━━━━━━━━━━━━━━━━━━━━━━━
  Init:    18.067  # 
  SCF:   1564.953  # ━━━━━━━━━━━━━━━━━━╸

Max RSS: 2717.836  # MiB
