#  __  _  _
# | _ |_)|_||  |
# |__||  | ||/\| - 24.1.0

User:   s194113@n-62-29-10
Date:   Tue May  7 13:15:46 2024
Arch:   x86_64
Pid:    14705
CWD:    /work3/s194113/10302/10302_NM/NiI2
Python: 3.8.5
gpaw:   /zhome/87/8/147075/venv-name/gpaw/gpaw (10808453a8)
_gpaw:  /zhome/87/8/147075/venv-name/gpaw/
        _gpaw.cpython-38-x86_64-linux-gnu.so (10808453a8)
ase:    /zhome/87/8/147075/venv-name/ase/ase (version 3.23.0b1-c36115a2db)
numpy:  /zhome/87/8/147075/venv-name/lib/python3.8/site-packages/numpy (version 1.24.4)
scipy:  /zhome/87/8/147075/venv-name/lib/python3.8/site-packages/scipy (version 1.10.1)
libxc:  4.3.4
units:  Angstrom and eV
cores: 18
OpenMP: False
OMP_NUM_THREADS: 1

---
input parameters:
  kpts: 
    density: 8.0
    gamma: True
  magmoms: [[1.28782608, 0, 0], [0.19870794, 0, 0], [0.19870794, 0, 0]]
  mixer: 
    backend: 'pulay'
    beta: 0.05
    method: 'sum'
    nmaxold: 5
    weight: 100
  mode: 
    name: 'pw'
    ecut: 800.0
    qspiral: array([0.05426357, 0.05426357, 0.        ])
  parallel: 
    kpt: None
    domain: 1
    band: 1
    order: 'kdb'
    stridebands: False
    augment_grids: False
    sl_auto: False
    sl_default: None
    sl_diagonalize: None
    sl_inverse_cholesky: None
    sl_lcao: None
    sl_lrtddft: None
    use_elpa: False
    elpasolver: '2stage'
    buffer_size: None
    gpu: False
  symmetry: 
    point_group: False
    time_reversal: False
  xc: 
    name: 'LDA'

#                        
#                        
#                        
#                        
#                        
#              I         
#                        
#        Ni              
#          I             
#                        
#                        
#                        
#                        
#                        

atoms: [  # symbols, positions [Ang] and initial magnetic moments
  [ Ni, [   0.000000,    0.000000,    7.513573], [ 1.288,  0.000,  0.000]], # 0
  [  I, [   1.984831,    1.145943,    9.027147], [ 0.199,  0.000,  0.000]], # 1
  [  I, [   0.000000,    2.291885,    6.000000], [ 0.199,  0.000,  0.000]]] # 2

cell: [  # Ang
#     x            y            z
  [   3.969662,    0.000000,    0.000000],
  [  -1.984831,    3.437828,    0.000000],
  [   0.000000,    0.000000,   15.027147]]

periodic: [True      , True      , False     ]
lengths:  [  3.969662,   3.969662,  15.027147]  # Ang
angles:   [ 90.000000,  90.000000, 120.000000]

symmetry:
  number of symmetries: 1
  rotations: [
    [[ 1,  0,  0], [ 0,  1,  0], [ 0,  0,  1]]]

bz sampling:
  number of bz points: 225
  number of ibz points: 225
  monkhorst-pack size: [15, 15, 1]
  monkhorst-pack shift: [0, 0, 0]
  points and weights: [
    [[ -0.46666667,  -0.46666667,   0.00000000], 0.00444444],  # 0
    [[ -0.46666667,  -0.40000000,   0.00000000], 0.00444444],  # 1
    [[ -0.46666667,  -0.33333333,   0.00000000], 0.00444444],  # 2
    [[ -0.46666667,  -0.26666667,   0.00000000], 0.00444444],  # 3
    [[ -0.46666667,  -0.20000000,   0.00000000], 0.00444444],  # 4
    [[ -0.46666667,  -0.13333333,   0.00000000], 0.00444444],  # 5
    [[ -0.46666667,  -0.06666667,   0.00000000], 0.00444444],  # 6
    [[ -0.46666667,   0.00000000,   0.00000000], 0.00444444],  # 7
    [[ -0.46666667,   0.06666667,   0.00000000], 0.00444444],  # 8
    [[ -0.46666667,   0.13333333,   0.00000000], 0.00444444],  # 9
    # ...
    [[  0.46666667,   0.46666667,   0.00000000], 0.00444444]]  # 224

plane wave coefficients: 10580
cutoff: 800.0 eV

spin-components: 4  # (non-collinear spins)
bands: 40
valence electrons: 30.0
spin-degeneracy: 1
dtype: complex128

memory:
    wave functions: 3_041_856_000  # bytes  (168_992_000 per core)

parallelization:
    kpt:    18
    domain: 1
    band:   1

density:
  components: 4
  grid points: [ 27  27 100]
  charge: 0.0  # |e|

potential:
  grid points: [ 27  27 100]

species:
  Ni:
    name: Nickel
    id: 1802175e8de9ea26d9f4394ec1a7d564
    Z: 28.0
    valence: 16
    core: 12
    charge: 0.0
    file: /zhome/86/d/1666/PAW/gpaw-setups-0.9.20000/Ni.LDA.gz
    compensation charges: {type: gauss,
                           rc: 0.36,
                           lmax: 2}
    cutoffs: {filter: 2.14,
              core: 1.98}
    valence states:
      #              energy  rcut
      - 4s(2.00)    -5.858   1.164
      - 3p(6.00)   -71.266   1.207
      - 4p(0.00)    -1.338   1.207
      - 3d(8.00)    -9.141   1.138
      -  s          21.353   1.164
      -  d          18.071   1.138
  
    # Using partial waves for Ni as LCAO basis

  I:
    name: Iodine
    id: b559721c0c096a7b4c8fc0e0f4de5cf4
    Z: 53.0
    valence: 7
    core: 46
    charge: 0.0
    file: /zhome/86/d/1666/PAW/gpaw-setups-0.9.20000/I.LDA.gz
    compensation charges: {type: gauss,
                           rc: 0.37,
                           lmax: 2}
    cutoffs: {filter: 2.06,
              core: 2.90}
    valence states:
      #              energy  rcut
      - 5s(2.00)   -17.626   1.164
      - 5p(5.00)    -7.241   1.164
      -  s           9.585   1.164
      -  p          19.970   1.164
      -  d           0.000   1.164
  
    # Using partial waves for I as LCAO basis

Reference energy: -428067.566327  # eV

eigensolver:
  name: 'Davidson'
  niter: 2
  converge_bands: 'occupied'
Density mixing:
  Method: sum
  Backend: pulay
  Linear mixing parameter: 0.05
  old densities: 5
  Damping of long wavelength oscillations: 100
occupation numbers:
  Fermi-Dirac:
    width: 0.1000  # eV
  

poisson solver:
  ecut: 6400.0  # eV

xc functional:
  name: None

convergence criteria:
- Maximum [total energy] change in last 3 cyles: 0.0005 eV / valence electron
- Maximum integral of absolute [dens]ity change: 0.0001 electrons / valence electron
- Maximum integral of absolute [eigenst]ate change: 4e-08 eV^2 / valence electron
maximum number of iterations: 333

#      iter     time        total  log10-change:
#                          energy   eigst   dens
# iter:   1 13:16:33   -13.847604                  +1.7,+0.0,+0.0
# iter:   2 13:17:04   -12.664254   -0.49  -1.32   +1.5,-0.0,+0.0
# iter:   3 13:17:35   -12.242976   -0.75  -1.46   +1.5,-0.0,-0.0
# iter:   4 13:18:07   -12.300514   -1.41  -1.68   +1.6,-0.0,-0.0
# iter:   5 13:18:38   -12.506727   -1.55  -1.66   +1.6,+0.0,-0.0
# iter:   6 13:19:09   -12.311302   -1.77  -1.78   +1.7,+0.0,-0.0
# iter:   7 13:19:41   -12.303110   -2.18  -2.20   +1.7,+0.0,-0.0
# iter:   8 13:20:12   -12.299028c  -2.43  -2.34   +1.7,+0.0,-0.0
# iter:   9 13:20:43   -12.298677c  -2.58  -2.58   +1.7,+0.0,-0.0
# iter:  10 13:21:14   -12.300010c  -2.90  -3.02   +1.7,+0.0,-0.0
# iter:  11 13:21:45   -12.299808c  -3.13  -2.98   +1.7,+0.0,-0.0
# iter:  12 13:22:16   -12.300622c  -3.30  -3.05   +1.7,+0.0,-0.0
# iter:  13 13:22:47   -12.299950c  -3.41  -3.15   +1.8,+0.0,-0.0
# iter:  14 13:23:18   -12.300012c  -3.64  -3.83   +1.8,+0.0,-0.0
# iter:  15 13:23:49   -12.300227c  -3.83  -3.93   +1.8,+0.0,-0.0
# iter:  16 13:24:21   -12.300294c  -3.98  -3.91   +1.8,+0.0,-0.0
# iter:  17 13:24:52   -12.300332c  -4.16  -3.95   +1.8,+0.0,-0.0
# iter:  18 13:25:23   -12.300299c  -4.32  -3.91   +1.8,+0.0,-0.0
# iter:  19 13:25:55   -12.300348c  -4.49  -3.84   +1.8,+0.0,-0.0
# iter:  20 13:26:26   -12.300348c  -4.66  -4.02c  +1.8,+0.0,-0.0
# iter:  21 13:26:57   -12.300368c  -4.82  -4.05c  +1.8,+0.0,-0.0
# iter:  22 13:27:28   -12.300374c  -4.97  -4.03c  +1.8,+0.0,-0.0
# iter:  23 13:27:59   -12.300366c  -5.15  -4.05c  +1.8,+0.0,-0.0
# iter:  24 13:28:30   -12.300399c  -5.31  -4.05c  +1.8,+0.0,-0.0
# iter:  25 13:29:01   -12.300448c  -5.46  -4.03c  +1.8,+0.0,-0.0
# iter:  26 13:29:32   -12.300582c  -5.61  -3.97   +1.8,+0.0,-0.0
# iter:  27 13:30:03   -12.300614c  -5.70  -3.87   +1.8,+0.0,-0.0
# iter:  28 13:30:34   -12.300518c  -5.88  -4.02c  +1.8,+0.0,-0.0
# iter:  29 13:31:06   -12.300550c  -6.13  -4.02c  +1.8,+0.0,-0.0
# iter:  30 13:31:37   -12.300607c  -6.30  -4.11c  +1.8,+0.0,-0.0
# iter:  31 13:32:08   -12.300655c  -6.47  -4.14c  +1.8,+0.0,-0.0
# iter:  32 13:32:40   -12.300631c  -6.66  -4.15c  +1.8,+0.0,-0.0
# iter:  33 13:33:11   -12.300595c  -6.78  -4.17c  +1.8,+0.0,-0.0
# iter:  34 13:33:42   -12.300604c  -6.97  -4.17c  +1.8,+0.0,-0.0
# iter:  35 13:34:13   -12.300660c  -6.94  -4.18c  +1.8,+0.0,-0.0
# iter:  36 13:34:44   -12.300661c  -7.23  -4.26c  +1.8,+0.0,-0.0
# iter:  37 13:35:15   -12.300620c  -7.18  -4.23c  +1.8,+0.0,-0.0
# iter:  38 13:35:46   -12.300707c  -7.33  -4.28c  +1.8,+0.0,-0.0
# iter:  39 13:36:18   -12.300686c  -7.69c -4.31c  +1.8,+0.0,-0.0
scf_steps: 39
energies:  # eV
  coulomb:          -7.900715
  zero:              0.066552
  xc:              -14.941372
  external:          0.000000
  kinetic:          10.499026
  spinorbit:         0.000000
  entropy:          -0.048353
  total:           -12.324863
  extrapolated:    -12.300686

dipole moment: [-4.204077, -7.281382, -6.088740]  # |e|*Ang

total magnetic moment: [1.773196, 0.009904, -0.000000]

local magnetic moments: [
  [ 1.138617, -0.004112, -0.000000],  # Ni 0
  [ 0.165941, -0.059564, -0.000000],  # I  1
  [ 0.165941, -0.059562, -0.000000]]  # I  2


Fermi level: -1.184 eV

kpt = [-0.467, -0.467, 0.000], weight = 0.004:
  Band      eig [eV]   occ [0-1]
     0       -64.968       1.000
   ...
    22        -3.154       1.000
    23        -3.005       1.000
    24        -2.917       1.000
    25        -2.311       1.000
    26        -2.165       1.000
    27        -2.138       1.000
    28        -1.608       0.986
    29        -1.544       0.973
    30        -0.672       0.006
    31        -0.628       0.004
    32         1.554       0.000
    33         2.022       0.000
    34         3.624       0.000
    35         4.295       0.000
    36         4.542       0.000
    37         4.636       0.000
   ...
    39         5.270       0.000

kpt = [-0.467, -0.400, 0.000], weight = 0.004:
  Band      eig [eV]   occ [0-1]
     0       -64.968       1.000
   ...
    22        -3.088       1.000
    23        -2.972       1.000
    24        -2.853       1.000
    25        -2.268       1.000
    26        -2.152       1.000
    27        -2.092       1.000
    28        -1.749       0.996
    29        -1.623       0.988
    30        -0.784       0.018
    31        -0.688       0.007
    32         1.775       0.000
    33         2.390       0.000
    34         3.945       0.000
    35         4.561       0.000
    36         4.629       0.000
    37         4.824       0.000
   ...
    39         5.590       0.000

kpt = [-0.467, -0.333, 0.000], weight = 0.004:
  Band      eig [eV]   occ [0-1]
     0       -64.968       1.000
   ...
    22        -3.049       1.000
    23        -2.941       1.000
    24        -2.764       1.000
    25        -2.248       1.000
    26        -2.147       1.000
    27        -2.049       1.000
    28        -1.909       0.999
    29        -1.645       0.990
    30        -0.958       0.094
    31        -0.713       0.009
    32         2.189       0.000
    33         2.631       0.000
    34         4.357       0.000
    35         4.454       0.000
    36         4.837       0.000
    37         5.024       0.000
   ...
    39         5.523       0.000
(only showing first 3 out of 225 k-points)

No gap
# Writing to Band_Conv/gsq-93.gpw (mode='')

