#  __  _  _
# | _ |_)|_||  |
# |__||  | ||/\| - 24.1.0

User:   s194113@n-62-29-10
Date:   Tue May  7 11:33:04 2024
Arch:   x86_64
Pid:    14705
CWD:    /work3/s194113/10302/10302_NM/NiI2
Python: 3.8.5
gpaw:   /zhome/87/8/147075/venv-name/gpaw/gpaw (10808453a8)
_gpaw:  /zhome/87/8/147075/venv-name/gpaw/
        _gpaw.cpython-38-x86_64-linux-gnu.so (10808453a8)
ase:    /zhome/87/8/147075/venv-name/ase/ase (version 3.23.0b1-c36115a2db)
numpy:  /zhome/87/8/147075/venv-name/lib/python3.8/site-packages/numpy (version 1.24.4)
scipy:  /zhome/87/8/147075/venv-name/lib/python3.8/site-packages/scipy (version 1.10.1)
libxc:  4.3.4
units:  Angstrom and eV
cores: 18
OpenMP: False
OMP_NUM_THREADS: 1

---
input parameters:
  kpts: 
    density: 8.0
    gamma: True
  magmoms: [[1.28782608, 0, 0], [0.19870794, 0, 0], [0.19870794, 0, 0]]
  mixer: 
    backend: 'pulay'
    beta: 0.05
    method: 'sum'
    nmaxold: 5
    weight: 100
  mode: 
    name: 'pw'
    ecut: 800.0
    qspiral: array([0.09302326, 0.09302326, 0.        ])
  parallel: 
    kpt: None
    domain: 1
    band: 1
    order: 'kdb'
    stridebands: False
    augment_grids: False
    sl_auto: False
    sl_default: None
    sl_diagonalize: None
    sl_inverse_cholesky: None
    sl_lcao: None
    sl_lrtddft: None
    use_elpa: False
    elpasolver: '2stage'
    buffer_size: None
    gpu: False
  symmetry: 
    point_group: False
    time_reversal: False
  xc: 
    name: 'LDA'

#                        
#                        
#                        
#                        
#                        
#              I         
#                        
#        Ni              
#          I             
#                        
#                        
#                        
#                        
#                        

atoms: [  # symbols, positions [Ang] and initial magnetic moments
  [ Ni, [   0.000000,    0.000000,    7.513573], [ 1.288,  0.000,  0.000]], # 0
  [  I, [   1.984831,    1.145943,    9.027147], [ 0.199,  0.000,  0.000]], # 1
  [  I, [   0.000000,    2.291885,    6.000000], [ 0.199,  0.000,  0.000]]] # 2

cell: [  # Ang
#     x            y            z
  [   3.969662,    0.000000,    0.000000],
  [  -1.984831,    3.437828,    0.000000],
  [   0.000000,    0.000000,   15.027147]]

periodic: [True      , True      , False     ]
lengths:  [  3.969662,   3.969662,  15.027147]  # Ang
angles:   [ 90.000000,  90.000000, 120.000000]

symmetry:
  number of symmetries: 1
  rotations: [
    [[ 1,  0,  0], [ 0,  1,  0], [ 0,  0,  1]]]

bz sampling:
  number of bz points: 225
  number of ibz points: 225
  monkhorst-pack size: [15, 15, 1]
  monkhorst-pack shift: [0, 0, 0]
  points and weights: [
    [[ -0.46666667,  -0.46666667,   0.00000000], 0.00444444],  # 0
    [[ -0.46666667,  -0.40000000,   0.00000000], 0.00444444],  # 1
    [[ -0.46666667,  -0.33333333,   0.00000000], 0.00444444],  # 2
    [[ -0.46666667,  -0.26666667,   0.00000000], 0.00444444],  # 3
    [[ -0.46666667,  -0.20000000,   0.00000000], 0.00444444],  # 4
    [[ -0.46666667,  -0.13333333,   0.00000000], 0.00444444],  # 5
    [[ -0.46666667,  -0.06666667,   0.00000000], 0.00444444],  # 6
    [[ -0.46666667,   0.00000000,   0.00000000], 0.00444444],  # 7
    [[ -0.46666667,   0.06666667,   0.00000000], 0.00444444],  # 8
    [[ -0.46666667,   0.13333333,   0.00000000], 0.00444444],  # 9
    # ...
    [[  0.46666667,   0.46666667,   0.00000000], 0.00444444]]  # 224

plane wave coefficients: 10580
cutoff: 800.0 eV

spin-components: 4  # (non-collinear spins)
bands: 40
valence electrons: 30.0
spin-degeneracy: 1
dtype: complex128

memory:
    wave functions: 3_041_856_000  # bytes  (168_992_000 per core)

parallelization:
    kpt:    18
    domain: 1
    band:   1

density:
  components: 4
  grid points: [ 27  27 100]
  charge: 0.0  # |e|

potential:
  grid points: [ 27  27 100]

species:
  Ni:
    name: Nickel
    id: 1802175e8de9ea26d9f4394ec1a7d564
    Z: 28.0
    valence: 16
    core: 12
    charge: 0.0
    file: /zhome/86/d/1666/PAW/gpaw-setups-0.9.20000/Ni.LDA.gz
    compensation charges: {type: gauss,
                           rc: 0.36,
                           lmax: 2}
    cutoffs: {filter: 2.14,
              core: 1.98}
    valence states:
      #              energy  rcut
      - 4s(2.00)    -5.858   1.164
      - 3p(6.00)   -71.266   1.207
      - 4p(0.00)    -1.338   1.207
      - 3d(8.00)    -9.141   1.138
      -  s          21.353   1.164
      -  d          18.071   1.138
  
    # Using partial waves for Ni as LCAO basis

  I:
    name: Iodine
    id: b559721c0c096a7b4c8fc0e0f4de5cf4
    Z: 53.0
    valence: 7
    core: 46
    charge: 0.0
    file: /zhome/86/d/1666/PAW/gpaw-setups-0.9.20000/I.LDA.gz
    compensation charges: {type: gauss,
                           rc: 0.37,
                           lmax: 2}
    cutoffs: {filter: 2.06,
              core: 2.90}
    valence states:
      #              energy  rcut
      - 5s(2.00)   -17.626   1.164
      - 5p(5.00)    -7.241   1.164
      -  s           9.585   1.164
      -  p          19.970   1.164
      -  d           0.000   1.164
  
    # Using partial waves for I as LCAO basis

Reference energy: -428067.566327  # eV

eigensolver:
  name: 'Davidson'
  niter: 2
  converge_bands: 'occupied'
Density mixing:
  Method: sum
  Backend: pulay
  Linear mixing parameter: 0.05
  old densities: 5
  Damping of long wavelength oscillations: 100
occupation numbers:
  Fermi-Dirac:
    width: 0.1000  # eV
  

poisson solver:
  ecut: 6400.0  # eV

xc functional:
  name: None

convergence criteria:
- Maximum [total energy] change in last 3 cyles: 0.0005 eV / valence electron
- Maximum integral of absolute [dens]ity change: 0.0001 electrons / valence electron
- Maximum integral of absolute [eigenst]ate change: 4e-08 eV^2 / valence electron
maximum number of iterations: 333

#      iter     time        total  log10-change:
#                          energy   eigst   dens
# iter:   1 11:33:52   -13.787205                  +1.7,+0.0,+0.0
# iter:   2 11:34:22   -12.665755   -0.37  -1.32   +1.5,-0.0,+0.0
# iter:   3 11:34:53   -12.251464   -0.71  -1.46   +1.5,-0.0,-0.0
# iter:   4 11:35:24   -12.314404   -1.41  -1.68   +1.6,-0.0,+0.0
# iter:   5 11:35:55   -12.506015   -1.56  -1.66   +1.6,+0.0,+0.0
# iter:   6 11:36:26   -12.336757   -1.81  -1.80   +1.6,+0.0,+0.0
# iter:   7 11:36:57   -12.319140   -2.14  -2.15   +1.6,+0.0,+0.0
# iter:   8 11:37:28   -12.311523   -2.38  -2.33   +1.7,+0.0,+0.0
# iter:   9 11:37:58   -12.312318c  -2.55  -2.66   +1.7,+0.0,+0.0
# iter:  10 11:38:29   -12.314281c  -2.84  -3.00   +1.7,+0.0,+0.0
# iter:  11 11:39:00   -12.314342c  -3.06  -2.88   +1.7,+0.0,+0.0
# iter:  12 11:39:30   -12.312753c  -3.19  -2.95   +1.7,+0.0,+0.0
# iter:  13 11:40:01   -12.312685c  -3.40  -3.60   +1.7,+0.0,+0.0
# iter:  14 11:40:32   -12.312849c  -3.57  -3.90   +1.7,+0.0,+0.0
# iter:  15 11:41:03   -12.313271c  -3.74  -3.92   +1.7,+0.0,+0.0
# iter:  16 11:41:33   -12.313305c  -3.91  -4.04c  +1.7,+0.0,+0.0
# iter:  17 11:42:04   -12.313330c  -4.06  -4.31c  +1.7,+0.0,+0.0
# iter:  18 11:42:35   -12.313357c  -4.21  -4.54c  +1.7,+0.0,+0.0
# iter:  19 11:43:05   -12.313381c  -4.36  -4.58c  +1.7,+0.0,+0.0
# iter:  20 11:43:36   -12.313381c  -4.51  -4.60c  +1.7,+0.0,+0.0
# iter:  21 11:44:06   -12.313392c  -4.66  -4.38c  +1.7,+0.0,+0.0
# iter:  22 11:44:37   -12.313422c  -4.81  -4.52c  +1.7,+0.0,+0.0
# iter:  23 11:45:08   -12.313444c  -4.96  -4.72c  +1.7,+0.0,+0.0
# iter:  24 11:45:38   -12.313454c  -5.10  -4.82c  +1.7,+0.0,+0.0
# iter:  25 11:46:09   -12.313465c  -5.25  -4.84c  +1.7,+0.0,+0.0
# iter:  26 11:46:40   -12.313533c  -5.38  -4.90c  +1.7,+0.0,+0.0
# iter:  27 11:47:11   -12.313525c  -5.53  -5.58c  +1.7,+0.0,+0.0
# iter:  28 11:47:41   -12.313528c  -5.67  -5.84c  +1.7,+0.0,+0.0
# iter:  29 11:48:12   -12.313528c  -5.82  -5.86c  +1.7,+0.0,+0.0
# iter:  30 11:48:43   -12.313532c  -5.96  -5.89c  +1.7,+0.0,+0.0
# iter:  31 11:49:13   -12.313537c  -6.11  -5.94c  +1.7,+0.0,+0.0
# iter:  32 11:49:44   -12.313533c  -6.25  -5.68c  +1.7,+0.0,+0.0
# iter:  33 11:50:14   -12.313533c  -6.39  -6.03c  +1.7,+0.0,+0.0
# iter:  34 11:50:45   -12.313534c  -6.54  -6.19c  +1.7,+0.0,+0.0
# iter:  35 11:51:15   -12.313535c  -6.68  -6.31c  +1.7,+0.0,+0.0
# iter:  36 11:51:46   -12.313535c  -6.83  -6.47c  +1.7,+0.0,+0.0
# iter:  37 11:52:17   -12.313535c  -6.97  -6.51c  +1.7,+0.0,+0.0
# iter:  38 11:52:47   -12.313535c  -7.11  -6.54c  +1.7,+0.0,+0.0
# iter:  39 11:53:18   -12.313535c  -7.25  -6.54c  +1.7,+0.0,+0.0
# iter:  40 11:53:48   -12.313535c  -7.39  -6.55c  +1.7,+0.0,+0.0
# iter:  41 11:54:19   -12.313535c  -7.54c -6.56c  +1.7,+0.0,+0.0
scf_steps: 41
energies:  # eV
  coulomb:          -7.799479
  zero:              0.067423
  xc:              -14.926259
  external:          0.000000
  kinetic:          10.364933
  spinorbit:         0.000000
  entropy:          -0.040306
  total:           -12.333687
  extrapolated:    -12.313535

dipole moment: [-4.126307, -7.146466, -5.469895]  # |e|*Ang

total magnetic moment: [1.702497, 0.014985, 0.000000]

local magnetic moments: [
  [ 1.140825, -0.006340,  0.000000],  # Ni 0
  [ 0.134340, -0.089948,  0.000000],  # I  1
  [ 0.134333, -0.089959,  0.000000]]  # I  2


Fermi level: -1.184 eV

kpt = [-0.467, -0.467, 0.000], weight = 0.004:
  Band      eig [eV]   occ [0-1]
     0       -64.966       1.000
   ...
    22        -3.121       1.000
    23        -2.984       1.000
    24        -2.903       1.000
    25        -2.295       1.000
    26        -2.157       1.000
    27        -2.131       1.000
    28        -1.630       0.989
    29        -1.620       0.987
    30        -0.688       0.007
    31        -0.677       0.006
    32         1.581       0.000
    33         2.226       0.000
    34         3.653       0.000
    35         4.565       0.000
    36         4.574       0.000
    37         4.665       0.000
   ...
    39         5.121       0.000

kpt = [-0.467, -0.400, 0.000], weight = 0.004:
  Band      eig [eV]   occ [0-1]
     0       -64.966       1.000
   ...
    22        -3.091       1.000
    23        -2.958       1.000
    24        -2.880       1.000
    25        -2.287       1.000
    26        -2.148       1.000
    27        -2.105       1.000
    28        -1.748       0.996
    29        -1.632       0.989
    30        -0.753       0.013
    31        -0.694       0.007
    32         1.636       0.000
    33         2.518       0.000
    34         3.715       0.000
    35         4.496       0.000
    36         4.608       0.000
    37         4.778       0.000
   ...
    39         5.823       0.000

kpt = [-0.467, -0.333, 0.000], weight = 0.004:
  Band      eig [eV]   occ [0-1]
     0       -64.966       1.000
   ...
    22        -3.038       1.000
    23        -2.941       1.000
    24        -2.788       1.000
    25        -2.283       1.000
    26        -2.149       1.000
    27        -2.081       1.000
    28        -1.838       0.999
    29        -1.632       0.989
    30        -0.898       0.054
    31        -0.720       0.010
    32         1.979       0.000
    33         2.624       0.000
    34         4.164       0.000
    35         4.481       0.000
    36         4.633       0.000
    37         4.946       0.000
   ...
    39         5.591       0.000
(only showing first 3 out of 225 k-points)

Gap: 0.166 eV
Transition (v -> c):
  (s=0, k=112, n=29, [0.00, 0.00, 0.00]) -> (s=0, k=176, n=30, [0.27, 0.27, 0.00])
# Writing to Band_Conv/gsq-88.gpw (mode='')

