#  __  _  _
# | _ |_)|_||  |
# |__||  | ||/\| - 24.1.0

User:   s194113@n-62-29-10
Date:   Tue May  7 00:27:15 2024
Arch:   x86_64
Pid:    14705
CWD:    /work3/s194113/10302/10302_NM/NiI2
Python: 3.8.5
gpaw:   /zhome/87/8/147075/venv-name/gpaw/gpaw (10808453a8)
_gpaw:  /zhome/87/8/147075/venv-name/gpaw/
        _gpaw.cpython-38-x86_64-linux-gnu.so (10808453a8)
ase:    /zhome/87/8/147075/venv-name/ase/ase (version 3.23.0b1-c36115a2db)
numpy:  /zhome/87/8/147075/venv-name/lib/python3.8/site-packages/numpy (version 1.24.4)
scipy:  /zhome/87/8/147075/venv-name/lib/python3.8/site-packages/scipy (version 1.10.1)
libxc:  4.3.4
units:  Angstrom and eV
cores: 18
OpenMP: False
OMP_NUM_THREADS: 1

---
input parameters:
  kpts: 
    density: 8.0
    gamma: True
  magmoms: [[1.28782608, 0, 0], [0.19870794, 0, 0], [0.19870794, 0, 0]]
  mixer: 
    backend: 'pulay'
    beta: 0.05
    method: 'sum'
    nmaxold: 5
    weight: 100
  mode: 
    name: 'pw'
    ecut: 800.0
    qspiral: array([0.30232558, 0.30232558, 0.        ])
  parallel: 
    kpt: None
    domain: 1
    band: 1
    order: 'kdb'
    stridebands: False
    augment_grids: False
    sl_auto: False
    sl_default: None
    sl_diagonalize: None
    sl_inverse_cholesky: None
    sl_lcao: None
    sl_lrtddft: None
    use_elpa: False
    elpasolver: '2stage'
    buffer_size: None
    gpu: False
  symmetry: 
    point_group: False
    time_reversal: False
  xc: 
    name: 'LDA'

#                        
#                        
#                        
#                        
#                        
#              I         
#                        
#        Ni              
#          I             
#                        
#                        
#                        
#                        
#                        

atoms: [  # symbols, positions [Ang] and initial magnetic moments
  [ Ni, [   0.000000,    0.000000,    7.513573], [ 1.288,  0.000,  0.000]], # 0
  [  I, [   1.984831,    1.145943,    9.027147], [ 0.199,  0.000,  0.000]], # 1
  [  I, [   0.000000,    2.291885,    6.000000], [ 0.199,  0.000,  0.000]]] # 2

cell: [  # Ang
#     x            y            z
  [   3.969662,    0.000000,    0.000000],
  [  -1.984831,    3.437828,    0.000000],
  [   0.000000,    0.000000,   15.027147]]

periodic: [True      , True      , False     ]
lengths:  [  3.969662,   3.969662,  15.027147]  # Ang
angles:   [ 90.000000,  90.000000, 120.000000]

symmetry:
  number of symmetries: 1
  rotations: [
    [[ 1,  0,  0], [ 0,  1,  0], [ 0,  0,  1]]]

bz sampling:
  number of bz points: 225
  number of ibz points: 225
  monkhorst-pack size: [15, 15, 1]
  monkhorst-pack shift: [0, 0, 0]
  points and weights: [
    [[ -0.46666667,  -0.46666667,   0.00000000], 0.00444444],  # 0
    [[ -0.46666667,  -0.40000000,   0.00000000], 0.00444444],  # 1
    [[ -0.46666667,  -0.33333333,   0.00000000], 0.00444444],  # 2
    [[ -0.46666667,  -0.26666667,   0.00000000], 0.00444444],  # 3
    [[ -0.46666667,  -0.20000000,   0.00000000], 0.00444444],  # 4
    [[ -0.46666667,  -0.13333333,   0.00000000], 0.00444444],  # 5
    [[ -0.46666667,  -0.06666667,   0.00000000], 0.00444444],  # 6
    [[ -0.46666667,   0.00000000,   0.00000000], 0.00444444],  # 7
    [[ -0.46666667,   0.06666667,   0.00000000], 0.00444444],  # 8
    [[ -0.46666667,   0.13333333,   0.00000000], 0.00444444],  # 9
    # ...
    [[  0.46666667,   0.46666667,   0.00000000], 0.00444444]]  # 224

plane wave coefficients: 10580
cutoff: 800.0 eV

spin-components: 4  # (non-collinear spins)
bands: 40
valence electrons: 30.0
spin-degeneracy: 1
dtype: complex128

memory:
    wave functions: 3_041_856_000  # bytes  (168_992_000 per core)

parallelization:
    kpt:    18
    domain: 1
    band:   1

density:
  components: 4
  grid points: [ 27  27 100]
  charge: 0.0  # |e|

potential:
  grid points: [ 27  27 100]

species:
  Ni:
    name: Nickel
    id: 1802175e8de9ea26d9f4394ec1a7d564
    Z: 28.0
    valence: 16
    core: 12
    charge: 0.0
    file: /zhome/86/d/1666/PAW/gpaw-setups-0.9.20000/Ni.LDA.gz
    compensation charges: {type: gauss,
                           rc: 0.36,
                           lmax: 2}
    cutoffs: {filter: 2.14,
              core: 1.98}
    valence states:
      #              energy  rcut
      - 4s(2.00)    -5.858   1.164
      - 3p(6.00)   -71.266   1.207
      - 4p(0.00)    -1.338   1.207
      - 3d(8.00)    -9.141   1.138
      -  s          21.353   1.164
      -  d          18.071   1.138
  
    # Using partial waves for Ni as LCAO basis

  I:
    name: Iodine
    id: b559721c0c096a7b4c8fc0e0f4de5cf4
    Z: 53.0
    valence: 7
    core: 46
    charge: 0.0
    file: /zhome/86/d/1666/PAW/gpaw-setups-0.9.20000/I.LDA.gz
    compensation charges: {type: gauss,
                           rc: 0.37,
                           lmax: 2}
    cutoffs: {filter: 2.06,
              core: 2.90}
    valence states:
      #              energy  rcut
      - 5s(2.00)   -17.626   1.164
      - 5p(5.00)    -7.241   1.164
      -  s           9.585   1.164
      -  p          19.970   1.164
      -  d           0.000   1.164
  
    # Using partial waves for I as LCAO basis

Reference energy: -428067.566327  # eV

eigensolver:
  name: 'Davidson'
  niter: 2
  converge_bands: 'occupied'
Density mixing:
  Method: sum
  Backend: pulay
  Linear mixing parameter: 0.05
  old densities: 5
  Damping of long wavelength oscillations: 100
occupation numbers:
  Fermi-Dirac:
    width: 0.1000  # eV
  

poisson solver:
  ecut: 6400.0  # eV

xc functional:
  name: None

convergence criteria:
- Maximum [total energy] change in last 3 cyles: 0.0005 eV / valence electron
- Maximum integral of absolute [dens]ity change: 0.0001 electrons / valence electron
- Maximum integral of absolute [eigenst]ate change: 4e-08 eV^2 / valence electron
maximum number of iterations: 333

#      iter     time        total  log10-change:
#                          energy   eigst   dens
# iter:   1 00:28:02   -12.789863                  +1.7,+0.0,+0.0
# iter:   2 00:28:33   -12.453217   +0.39  -1.31   +1.1,-0.0,+0.0
# iter:   3 00:29:04   -12.190181   -0.27  -1.46   +1.0,-0.0,-0.0
# iter:   4 00:29:36   -12.242598   -0.82  -1.68   +1.0,-0.0,-0.0
# iter:   5 00:30:07   -12.548189   -1.00  -1.68   +1.0,-0.0,+0.0
# iter:   6 00:30:38   -12.293786   -1.23  -1.73   +1.0,-0.0,+0.0
# iter:   7 00:31:10   -12.303008   -1.50  -2.25   +1.0,+0.0,+0.0
# iter:   8 00:31:41   -12.288918c  -1.64  -2.30   +1.0,+0.0,-0.0
# iter:   9 00:32:12   -12.290633c  -1.81  -2.78   +1.1,+0.0,-0.0
# iter:  10 00:32:43   -12.290967c  -1.98  -3.04   +1.1,+0.0,-0.0
# iter:  11 00:33:14   -12.292214c  -2.11  -3.12   +1.1,+0.0,-0.0
# iter:  12 00:33:45   -12.292714c  -2.26  -3.17   +1.1,+0.0,+0.0
# iter:  13 00:34:16   -12.293112c  -2.39  -3.67   +1.1,+0.0,-0.0
# iter:  14 00:34:47   -12.293223c  -2.52  -3.59   +1.1,+0.0,-0.0
# iter:  15 00:35:18   -12.293420c  -2.66  -3.60   +1.1,+0.0,+0.0
# iter:  16 00:35:49   -12.293487c  -2.79  -3.92   +1.1,+0.0,+0.0
# iter:  17 00:36:20   -12.293510c  -2.92  -3.92   +1.1,+0.0,+0.0
# iter:  18 00:36:51   -12.293574c  -3.05  -3.95   +1.1,+0.0,+0.0
# iter:  19 00:37:22   -12.293616c  -3.18  -3.96   +1.1,+0.0,+0.0
# iter:  20 00:37:53   -12.293665c  -3.31  -4.03c  +1.1,+0.0,+0.0
# iter:  21 00:38:24   -12.293749c  -3.44  -4.11c  +1.1,+0.0,+0.0
# iter:  22 00:38:55   -12.293810c  -3.56  -4.17c  +1.1,+0.0,+0.0
# iter:  23 00:39:26   -12.293847c  -3.69  -4.27c  +1.1,+0.0,+0.0
# iter:  24 00:39:57   -12.294004c  -3.83  -4.33c  +1.1,+0.0,+0.0
# iter:  25 00:40:28   -12.294065c  -3.96  -4.38c  +1.1,+0.0,+0.0
# iter:  26 00:41:00   -12.294113c  -4.08  -4.69c  +1.1,+0.0,-0.0
# iter:  27 00:41:31   -12.294129c  -4.21  -4.76c  +1.1,+0.0,-0.0
# iter:  28 00:42:01   -12.294133c  -4.33  -4.76c  +1.1,+0.0,-0.0
# iter:  29 00:42:32   -12.294136c  -4.46  -4.76c  +1.1,+0.0,-0.0
# iter:  30 00:43:04   -12.294141c  -4.59  -4.77c  +1.1,+0.0,-0.0
# iter:  31 00:43:34   -12.294149c  -4.71  -4.77c  +1.1,+0.0,-0.0
# iter:  32 00:44:05   -12.294154c  -4.84  -4.80c  +1.1,+0.0,-0.0
# iter:  33 00:44:36   -12.294158c  -4.98  -4.80c  +1.1,+0.0,-0.0
# iter:  34 00:45:07   -12.294208c  -5.10  -4.81c  +1.1,+0.0,-0.0
# iter:  35 00:45:38   -12.294211c  -5.24  -4.99c  +1.1,+0.0,-0.0
# iter:  36 00:46:09   -12.294211c  -5.37  -5.06c  +1.1,+0.0,-0.0
# iter:  37 00:46:40   -12.294209c  -5.50  -5.08c  +1.1,+0.0,-0.0
# iter:  38 00:47:11   -12.294219c  -5.63  -5.07c  +1.1,+0.0,-0.0
# iter:  39 00:47:42   -12.294240c  -5.76  -5.13c  +1.1,+0.0,-0.0
# iter:  40 00:48:13   -12.294256c  -5.89  -5.35c  +1.1,+0.0,-0.0
# iter:  41 00:48:44   -12.294256c  -6.03  -5.52c  +1.1,+0.0,-0.0
# iter:  42 00:49:15   -12.294255c  -6.16  -5.75c  +1.1,+0.0,-0.0
# iter:  43 00:49:46   -12.294254c  -6.30  -5.86c  +1.1,+0.0,-0.0
# iter:  44 00:50:17   -12.294254c  -6.44  -5.95c  +1.1,+0.0,-0.0
# iter:  45 00:50:48   -12.294252c  -6.57  -6.03c  +1.1,+0.0,-0.0
# iter:  46 00:51:19   -12.294252c  -6.71  -6.16c  +1.1,+0.0,-0.0
# iter:  47 00:51:50   -12.294252c  -6.84  -6.38c  +1.1,+0.0,-0.0
# iter:  48 00:52:21   -12.294253c  -6.98  -6.39c  +1.1,+0.0,-0.0
# iter:  49 00:52:52   -12.294253c  -7.12  -6.42c  +1.1,+0.0,-0.0
# iter:  50 00:53:23   -12.294253c  -7.26  -6.50c  +1.1,+0.0,-0.0
# iter:  51 00:53:54   -12.294253c  -7.40c -6.51c  +1.1,+0.0,-0.0
scf_steps: 51
energies:  # eV
  coulomb:          -7.677223
  zero:              0.067667
  xc:              -14.876298
  external:          0.000000
  kinetic:          10.213227
  spinorbit:         0.000000
  entropy:          -0.043253
  total:           -12.315880
  extrapolated:    -12.294253

dipole moment: [-3.527423, -6.109010, -0.974346]  # |e|*Ang

total magnetic moment: [1.107335, 0.003876, -0.000000]

local magnetic moments: [
  [ 1.111928, -0.001379, -0.000000],  # Ni 0
  [-0.006572, -0.019287, -0.000000],  # I  1
  [-0.006633, -0.019266, -0.000000]]  # I  2


Fermi level: -1.200 eV

kpt = [-0.467, -0.467, 0.000], weight = 0.004:
  Band      eig [eV]   occ [0-1]
     0       -64.939       1.000
   ...
    22        -3.030       1.000
    23        -2.805       1.000
    24        -2.784       1.000
    25        -2.323       1.000
    26        -2.109       1.000
    27        -2.091       1.000
    28        -1.859       0.999
    29        -1.804       0.998
    30        -0.964       0.087
    31        -0.916       0.056
    32         2.468       0.000
    33         2.622       0.000
    34         4.746       0.000
    35         4.761       0.000
    36         4.892       0.000
    37         5.040       0.000
   ...
    39         5.989       0.000

kpt = [-0.467, -0.400, 0.000], weight = 0.004:
  Band      eig [eV]   occ [0-1]
     0       -64.939       1.000
   ...
    22        -2.978       1.000
    23        -2.836       1.000
    24        -2.799       1.000
    25        -2.385       1.000
    26        -2.156       1.000
    27        -2.116       1.000
    28        -1.762       0.996
    29        -1.715       0.994
    30        -0.909       0.052
    31        -0.860       0.032
    32         2.257       0.000
    33         2.587       0.000
    34         4.439       0.000
    35         4.565       0.000
    36         4.957       0.000
    37         5.133       0.000
   ...
    39         5.306       0.000

kpt = [-0.467, -0.333, 0.000], weight = 0.004:
  Band      eig [eV]   occ [0-1]
     0       -64.939       1.000
   ...
    22        -2.925       1.000
    23        -2.901       1.000
    24        -2.798       1.000
    25        -2.430       1.000
    26        -2.215       1.000
    27        -2.110       1.000
    28        -1.685       0.992
    29        -1.546       0.970
    30        -0.899       0.047
    31        -0.741       0.010
    32         1.951       0.000
    33         2.465       0.000
    34         4.121       0.000
    35         4.308       0.000
    36         4.596       0.000
    37         4.938       0.000
   ...
    39         5.367       0.000
(only showing first 3 out of 225 k-points)

Gap: 0.403 eV
Transition (v -> c):
  (s=0, k=74, n=29, [-0.20, 0.47, 0.00]) -> (s=0, k=14, n=30, [-0.47, 0.47, 0.00])
# Writing to Band_Conv/gsq-61.gpw (mode='')

