#  __  _  _
# | _ |_)|_||  |
# |__||  | ||/\| - 24.1.0

User:   s194113@n-62-29-10
Date:   Tue May  7 13:56:06 2024
Arch:   x86_64
Pid:    14705
CWD:    /work3/s194113/10302/10302_NM/NiI2
Python: 3.8.5
gpaw:   /zhome/87/8/147075/venv-name/gpaw/gpaw (10808453a8)
_gpaw:  /zhome/87/8/147075/venv-name/gpaw/
        _gpaw.cpython-38-x86_64-linux-gnu.so (10808453a8)
ase:    /zhome/87/8/147075/venv-name/ase/ase (version 3.23.0b1-c36115a2db)
numpy:  /zhome/87/8/147075/venv-name/lib/python3.8/site-packages/numpy (version 1.24.4)
scipy:  /zhome/87/8/147075/venv-name/lib/python3.8/site-packages/scipy (version 1.10.1)
libxc:  4.3.4
units:  Angstrom and eV
cores: 18
OpenMP: False
OMP_NUM_THREADS: 1

---
input parameters:
  kpts: 
    density: 8.0
    gamma: True
  magmoms: [[1.28782608, 0, 0], [0.19870794, 0, 0], [0.19870794, 0, 0]]
  mixer: 
    backend: 'pulay'
    beta: 0.05
    method: 'sum'
    nmaxold: 5
    weight: 100
  mode: 
    name: 'pw'
    ecut: 800.0
    qspiral: array([0.03875969, 0.03875969, 0.        ])
  parallel: 
    kpt: None
    domain: 1
    band: 1
    order: 'kdb'
    stridebands: False
    augment_grids: False
    sl_auto: False
    sl_default: None
    sl_diagonalize: None
    sl_inverse_cholesky: None
    sl_lcao: None
    sl_lrtddft: None
    use_elpa: False
    elpasolver: '2stage'
    buffer_size: None
    gpu: False
  symmetry: 
    point_group: False
    time_reversal: False
  xc: 
    name: 'LDA'

#                        
#                        
#                        
#                        
#                        
#              I         
#                        
#        Ni              
#          I             
#                        
#                        
#                        
#                        
#                        

atoms: [  # symbols, positions [Ang] and initial magnetic moments
  [ Ni, [   0.000000,    0.000000,    7.513573], [ 1.288,  0.000,  0.000]], # 0
  [  I, [   1.984831,    1.145943,    9.027147], [ 0.199,  0.000,  0.000]], # 1
  [  I, [   0.000000,    2.291885,    6.000000], [ 0.199,  0.000,  0.000]]] # 2

cell: [  # Ang
#     x            y            z
  [   3.969662,    0.000000,    0.000000],
  [  -1.984831,    3.437828,    0.000000],
  [   0.000000,    0.000000,   15.027147]]

periodic: [True      , True      , False     ]
lengths:  [  3.969662,   3.969662,  15.027147]  # Ang
angles:   [ 90.000000,  90.000000, 120.000000]

symmetry:
  number of symmetries: 1
  rotations: [
    [[ 1,  0,  0], [ 0,  1,  0], [ 0,  0,  1]]]

bz sampling:
  number of bz points: 225
  number of ibz points: 225
  monkhorst-pack size: [15, 15, 1]
  monkhorst-pack shift: [0, 0, 0]
  points and weights: [
    [[ -0.46666667,  -0.46666667,   0.00000000], 0.00444444],  # 0
    [[ -0.46666667,  -0.40000000,   0.00000000], 0.00444444],  # 1
    [[ -0.46666667,  -0.33333333,   0.00000000], 0.00444444],  # 2
    [[ -0.46666667,  -0.26666667,   0.00000000], 0.00444444],  # 3
    [[ -0.46666667,  -0.20000000,   0.00000000], 0.00444444],  # 4
    [[ -0.46666667,  -0.13333333,   0.00000000], 0.00444444],  # 5
    [[ -0.46666667,  -0.06666667,   0.00000000], 0.00444444],  # 6
    [[ -0.46666667,   0.00000000,   0.00000000], 0.00444444],  # 7
    [[ -0.46666667,   0.06666667,   0.00000000], 0.00444444],  # 8
    [[ -0.46666667,   0.13333333,   0.00000000], 0.00444444],  # 9
    # ...
    [[  0.46666667,   0.46666667,   0.00000000], 0.00444444]]  # 224

plane wave coefficients: 10580
cutoff: 800.0 eV

spin-components: 4  # (non-collinear spins)
bands: 40
valence electrons: 30.0
spin-degeneracy: 1
dtype: complex128

memory:
    wave functions: 3_041_856_000  # bytes  (168_992_000 per core)

parallelization:
    kpt:    18
    domain: 1
    band:   1

density:
  components: 4
  grid points: [ 27  27 100]
  charge: 0.0  # |e|

potential:
  grid points: [ 27  27 100]

species:
  Ni:
    name: Nickel
    id: 1802175e8de9ea26d9f4394ec1a7d564
    Z: 28.0
    valence: 16
    core: 12
    charge: 0.0
    file: /zhome/86/d/1666/PAW/gpaw-setups-0.9.20000/Ni.LDA.gz
    compensation charges: {type: gauss,
                           rc: 0.36,
                           lmax: 2}
    cutoffs: {filter: 2.14,
              core: 1.98}
    valence states:
      #              energy  rcut
      - 4s(2.00)    -5.858   1.164
      - 3p(6.00)   -71.266   1.207
      - 4p(0.00)    -1.338   1.207
      - 3d(8.00)    -9.141   1.138
      -  s          21.353   1.164
      -  d          18.071   1.138
  
    # Using partial waves for Ni as LCAO basis

  I:
    name: Iodine
    id: b559721c0c096a7b4c8fc0e0f4de5cf4
    Z: 53.0
    valence: 7
    core: 46
    charge: 0.0
    file: /zhome/86/d/1666/PAW/gpaw-setups-0.9.20000/I.LDA.gz
    compensation charges: {type: gauss,
                           rc: 0.37,
                           lmax: 2}
    cutoffs: {filter: 2.06,
              core: 2.90}
    valence states:
      #              energy  rcut
      - 5s(2.00)   -17.626   1.164
      - 5p(5.00)    -7.241   1.164
      -  s           9.585   1.164
      -  p          19.970   1.164
      -  d           0.000   1.164
  
    # Using partial waves for I as LCAO basis

Reference energy: -428067.566327  # eV

eigensolver:
  name: 'Davidson'
  niter: 2
  converge_bands: 'occupied'
Density mixing:
  Method: sum
  Backend: pulay
  Linear mixing parameter: 0.05
  old densities: 5
  Damping of long wavelength oscillations: 100
occupation numbers:
  Fermi-Dirac:
    width: 0.1000  # eV
  

poisson solver:
  ecut: 6400.0  # eV

xc functional:
  name: None

convergence criteria:
- Maximum [total energy] change in last 3 cyles: 0.0005 eV / valence electron
- Maximum integral of absolute [dens]ity change: 0.0001 electrons / valence electron
- Maximum integral of absolute [eigenst]ate change: 4e-08 eV^2 / valence electron
maximum number of iterations: 333

#      iter     time        total  log10-change:
#                          energy   eigst   dens
# iter:   1 13:56:53   -13.864202                  +1.7,+0.0,+0.0
# iter:   2 13:57:25   -12.664227   -0.51  -1.32   +1.5,-0.0,+0.0
# iter:   3 13:57:56   -12.240948   -0.75  -1.46   +1.5,-0.0,-0.0
# iter:   4 13:58:28   -12.298642   -1.36  -1.68   +1.6,-0.0,-0.0
# iter:   5 13:58:59   -12.510424   -1.52  -1.66   +1.6,+0.0,-0.0
# iter:   6 13:59:31   -12.303502   -1.73  -1.77   +1.7,+0.0,-0.0
# iter:   7 14:00:02   -12.295877   -2.14  -2.21   +1.7,+0.0,-0.0
# iter:   8 14:00:34   -12.295578c  -2.41  -2.35   +1.7,+0.0,+0.0
# iter:   9 14:01:05   -12.292975c  -2.52  -2.49   +1.8,+0.0,-0.0
# iter:  10 14:01:37   -12.293842c  -2.86  -3.02   +1.7,+0.0,-0.0
# iter:  11 14:02:08   -12.294555c  -3.07  -3.03   +1.8,+0.0,-0.0
# iter:  12 14:02:40   -12.295839c  -3.26  -3.07   +1.8,+0.0,-0.0
# iter:  13 14:03:11   -12.295319c  -3.43  -3.10   +1.8,+0.0,-0.0
# iter:  14 14:03:42   -12.295671c  -3.61  -3.30   +1.8,+0.0,-0.0
# iter:  15 14:04:14   -12.294665c  -3.71  -3.20   +1.8,+0.0,-0.0
# iter:  16 14:04:45   -12.295043c  -3.90  -3.70   +1.8,+0.0,+0.0
# iter:  17 14:05:16   -12.295433c  -4.12  -3.67   +1.8,+0.0,-0.0
# iter:  18 14:05:48   -12.295340c  -4.30  -3.85   +1.8,+0.0,-0.0
# iter:  19 14:06:19   -12.295387c  -4.49  -4.08c  +1.8,+0.0,-0.0
# iter:  20 14:06:51   -12.295503c  -4.65  -4.08c  +1.8,+0.0,-0.0
# iter:  21 14:07:22   -12.295474c  -4.82  -4.07c  +1.8,+0.0,-0.0
# iter:  22 14:07:53   -12.295508c  -4.98  -4.11c  +1.8,+0.0,-0.0
# iter:  23 14:08:24   -12.295512c  -5.14  -4.12c  +1.8,+0.0,-0.0
# iter:  24 14:08:56   -12.295482c  -5.31  -4.13c  +1.8,+0.0,-0.0
# iter:  25 14:09:27   -12.295466c  -5.47  -4.12c  +1.8,+0.0,-0.0
# iter:  26 14:09:59   -12.295598c  -5.62  -4.11c  +1.8,+0.0,-0.0
# iter:  27 14:10:30   -12.295589c  -5.79  -4.09c  +1.8,+0.0,-0.0
# iter:  28 14:11:02   -12.295541c  -5.96  -4.11c  +1.8,+0.0,-0.0
# iter:  29 14:11:33   -12.295538c  -6.14  -4.14c  +1.8,+0.0,-0.0
# iter:  30 14:12:05   -12.295567c  -6.28  -4.10c  +1.8,+0.0,-0.0
# iter:  31 14:12:36   -12.295629c  -6.42  -4.08c  +1.8,+0.0,-0.0
# iter:  32 14:13:07   -12.295633c  -6.66  -4.12c  +1.8,+0.0,-0.0
# iter:  33 14:13:39   -12.295701c  -6.76  -4.14c  +1.8,+0.0,-0.0
# iter:  34 14:14:10   -12.295982c  -6.13  -4.20c  +1.8,+0.0,-0.0
# iter:  35 14:14:41   -12.295994c  -6.91  -4.31c  +1.8,+0.0,-0.0
# iter:  36 14:15:13   -12.296000c  -7.25  -4.35c  +1.8,+0.0,-0.0
# iter:  37 14:15:43   -12.296073c  -7.14  -4.39c  +1.8,+0.0,-0.0
# iter:  38 14:16:15   -12.296129c  -7.04  -4.51c  +1.8,+0.0,-0.0
# iter:  39 14:16:46   -12.296105c  -7.80c -4.82c  +1.8,+0.0,-0.0
scf_steps: 39
energies:  # eV
  coulomb:          -8.033800
  zero:              0.066758
  xc:              -14.957829
  external:          0.000000
  kinetic:          10.654128
  spinorbit:         0.000000
  entropy:          -0.050724
  total:           -12.321467
  extrapolated:    -12.296105

dipole moment: [-4.225561, -7.318660, -6.261864]  # |e|*Ang

total magnetic moment: [1.800516, 0.007217, -0.000000]

local magnetic moments: [
  [ 1.147105, -0.003022, -0.000000],  # Ni 0
  [ 0.174711, -0.043905, -0.000000],  # I  1
  [ 0.174712, -0.043901, -0.000000]]  # I  2


Fermi level: -1.183 eV

kpt = [-0.467, -0.467, 0.000], weight = 0.004:
  Band      eig [eV]   occ [0-1]
     0       -64.977       1.000
   ...
    22        -3.165       1.000
    23        -3.017       1.000
    24        -2.924       1.000
    25        -2.317       1.000
    26        -2.168       1.000
    27        -2.139       1.000
    28        -1.609       0.986
    29        -1.520       0.967
    30        -0.665       0.006
    31        -0.617       0.003
    32         1.567       0.000
    33         1.946       0.000
    34         3.657       0.000
    35         4.165       0.000
    36         4.543       0.000
    37         4.635       0.000
   ...
    39         4.828       0.000

kpt = [-0.467, -0.400, 0.000], weight = 0.004:
  Band      eig [eV]   occ [0-1]
     0       -64.977       1.000
   ...
    22        -3.092       1.000
    23        -2.981       1.000
    24        -2.849       1.000
    25        -2.263       1.000
    26        -2.153       1.000
    27        -2.089       1.000
    28        -1.751       0.997
    29        -1.623       0.988
    30        -0.798       0.021
    31        -0.682       0.007
    32         1.845       0.000
    33         2.325       0.000
    34         4.064       0.000
    35         4.568       0.000
    36         4.653       0.000
    37         4.841       0.000
   ...
    39         5.193       0.000

kpt = [-0.467, -0.333, 0.000], weight = 0.004:
  Band      eig [eV]   occ [0-1]
     0       -64.977       1.000
   ...
    22        -3.058       1.000
    23        -2.946       1.000
    24        -2.763       1.000
    25        -2.240       1.000
    26        -2.146       1.000
    27        -2.037       1.000
    28        -1.938       0.999
    29        -1.651       0.991
    30        -0.974       0.109
    31        -0.708       0.009
    32         2.264       0.000
    33         2.621       0.000
    34         4.363       0.000
    35         4.478       0.000
    36         4.921       0.000
    37         5.122       0.000
   ...
    39         5.523       0.000
(only showing first 3 out of 225 k-points)

No gap
# Writing to Band_Conv/gsq-95.gpw (mode='')

