#  __  _  _
# | _ |_)|_||  |
# |__||  | ||/\| - 24.1.0

User:   s194113@n-62-29-10
Date:   Tue May  7 09:19:06 2024
Arch:   x86_64
Pid:    14705
CWD:    /work3/s194113/10302/10302_NM/NiI2
Python: 3.8.5
gpaw:   /zhome/87/8/147075/venv-name/gpaw/gpaw (10808453a8)
_gpaw:  /zhome/87/8/147075/venv-name/gpaw/
        _gpaw.cpython-38-x86_64-linux-gnu.so (10808453a8)
ase:    /zhome/87/8/147075/venv-name/ase/ase (version 3.23.0b1-c36115a2db)
numpy:  /zhome/87/8/147075/venv-name/lib/python3.8/site-packages/numpy (version 1.24.4)
scipy:  /zhome/87/8/147075/venv-name/lib/python3.8/site-packages/scipy (version 1.10.1)
libxc:  4.3.4
units:  Angstrom and eV
cores: 18
OpenMP: False
OMP_NUM_THREADS: 1

---
input parameters:
  kpts: 
    density: 8.0
    gamma: True
  magmoms: [[1.28782608, 0, 0], [0.19870794, 0, 0], [0.19870794, 0, 0]]
  mixer: 
    backend: 'pulay'
    beta: 0.05
    method: 'sum'
    nmaxold: 5
    weight: 100
  mode: 
    name: 'pw'
    ecut: 800.0
    qspiral: array([0.13953488, 0.13953488, 0.        ])
  parallel: 
    kpt: None
    domain: 1
    band: 1
    order: 'kdb'
    stridebands: False
    augment_grids: False
    sl_auto: False
    sl_default: None
    sl_diagonalize: None
    sl_inverse_cholesky: None
    sl_lcao: None
    sl_lrtddft: None
    use_elpa: False
    elpasolver: '2stage'
    buffer_size: None
    gpu: False
  symmetry: 
    point_group: False
    time_reversal: False
  xc: 
    name: 'LDA'

#                        
#                        
#                        
#                        
#                        
#              I         
#                        
#        Ni              
#          I             
#                        
#                        
#                        
#                        
#                        

atoms: [  # symbols, positions [Ang] and initial magnetic moments
  [ Ni, [   0.000000,    0.000000,    7.513573], [ 1.288,  0.000,  0.000]], # 0
  [  I, [   1.984831,    1.145943,    9.027147], [ 0.199,  0.000,  0.000]], # 1
  [  I, [   0.000000,    2.291885,    6.000000], [ 0.199,  0.000,  0.000]]] # 2

cell: [  # Ang
#     x            y            z
  [   3.969662,    0.000000,    0.000000],
  [  -1.984831,    3.437828,    0.000000],
  [   0.000000,    0.000000,   15.027147]]

periodic: [True      , True      , False     ]
lengths:  [  3.969662,   3.969662,  15.027147]  # Ang
angles:   [ 90.000000,  90.000000, 120.000000]

symmetry:
  number of symmetries: 1
  rotations: [
    [[ 1,  0,  0], [ 0,  1,  0], [ 0,  0,  1]]]

bz sampling:
  number of bz points: 225
  number of ibz points: 225
  monkhorst-pack size: [15, 15, 1]
  monkhorst-pack shift: [0, 0, 0]
  points and weights: [
    [[ -0.46666667,  -0.46666667,   0.00000000], 0.00444444],  # 0
    [[ -0.46666667,  -0.40000000,   0.00000000], 0.00444444],  # 1
    [[ -0.46666667,  -0.33333333,   0.00000000], 0.00444444],  # 2
    [[ -0.46666667,  -0.26666667,   0.00000000], 0.00444444],  # 3
    [[ -0.46666667,  -0.20000000,   0.00000000], 0.00444444],  # 4
    [[ -0.46666667,  -0.13333333,   0.00000000], 0.00444444],  # 5
    [[ -0.46666667,  -0.06666667,   0.00000000], 0.00444444],  # 6
    [[ -0.46666667,   0.00000000,   0.00000000], 0.00444444],  # 7
    [[ -0.46666667,   0.06666667,   0.00000000], 0.00444444],  # 8
    [[ -0.46666667,   0.13333333,   0.00000000], 0.00444444],  # 9
    # ...
    [[  0.46666667,   0.46666667,   0.00000000], 0.00444444]]  # 224

plane wave coefficients: 10580
cutoff: 800.0 eV

spin-components: 4  # (non-collinear spins)
bands: 40
valence electrons: 30.0
spin-degeneracy: 1
dtype: complex128

memory:
    wave functions: 3_041_856_000  # bytes  (168_992_000 per core)

parallelization:
    kpt:    18
    domain: 1
    band:   1

density:
  components: 4
  grid points: [ 27  27 100]
  charge: 0.0  # |e|

potential:
  grid points: [ 27  27 100]

species:
  Ni:
    name: Nickel
    id: 1802175e8de9ea26d9f4394ec1a7d564
    Z: 28.0
    valence: 16
    core: 12
    charge: 0.0
    file: /zhome/86/d/1666/PAW/gpaw-setups-0.9.20000/Ni.LDA.gz
    compensation charges: {type: gauss,
                           rc: 0.36,
                           lmax: 2}
    cutoffs: {filter: 2.14,
              core: 1.98}
    valence states:
      #              energy  rcut
      - 4s(2.00)    -5.858   1.164
      - 3p(6.00)   -71.266   1.207
      - 4p(0.00)    -1.338   1.207
      - 3d(8.00)    -9.141   1.138
      -  s          21.353   1.164
      -  d          18.071   1.138
  
    # Using partial waves for Ni as LCAO basis

  I:
    name: Iodine
    id: b559721c0c096a7b4c8fc0e0f4de5cf4
    Z: 53.0
    valence: 7
    core: 46
    charge: 0.0
    file: /zhome/86/d/1666/PAW/gpaw-setups-0.9.20000/I.LDA.gz
    compensation charges: {type: gauss,
                           rc: 0.37,
                           lmax: 2}
    cutoffs: {filter: 2.06,
              core: 2.90}
    valence states:
      #              energy  rcut
      - 5s(2.00)   -17.626   1.164
      - 5p(5.00)    -7.241   1.164
      -  s           9.585   1.164
      -  p          19.970   1.164
      -  d           0.000   1.164
  
    # Using partial waves for I as LCAO basis

Reference energy: -428067.566327  # eV

eigensolver:
  name: 'Davidson'
  niter: 2
  converge_bands: 'occupied'
Density mixing:
  Method: sum
  Backend: pulay
  Linear mixing parameter: 0.05
  old densities: 5
  Damping of long wavelength oscillations: 100
occupation numbers:
  Fermi-Dirac:
    width: 0.1000  # eV
  

poisson solver:
  ecut: 6400.0  # eV

xc functional:
  name: None

convergence criteria:
- Maximum [total energy] change in last 3 cyles: 0.0005 eV / valence electron
- Maximum integral of absolute [dens]ity change: 0.0001 electrons / valence electron
- Maximum integral of absolute [eigenst]ate change: 4e-08 eV^2 / valence electron
maximum number of iterations: 333

#      iter     time        total  log10-change:
#                          energy   eigst   dens
# iter:   1 09:19:54   -13.669060                  +1.7,+0.0,+0.0
# iter:   2 09:20:25   -12.651999   -0.18  -1.32   +1.4,-0.0,+0.0
# iter:   3 09:20:57   -12.252566   -0.62  -1.46   +1.4,-0.0,-0.0
# iter:   4 09:21:28   -12.329568   -1.28  -1.68   +1.5,-0.0,+0.0
# iter:   5 09:21:59   -12.498262   -1.47  -1.66   +1.5,+0.0,+0.0
# iter:   6 09:22:29   -12.338601   -1.70  -1.82   +1.5,+0.0,+0.0
# iter:   7 09:23:00   -12.324899   -1.99  -2.18   +1.5,+0.0,-0.0
# iter:   8 09:23:31   -12.316357   -2.19  -2.34   +1.5,+0.0,-0.0
# iter:   9 09:24:02   -12.317506c  -2.38  -2.75   +1.5,+0.0,-0.0
# iter:  10 09:24:33   -12.319493c  -2.61  -3.01   +1.5,+0.0,-0.0
# iter:  11 09:25:04   -12.316790c  -2.76  -2.86   +1.5,+0.0,-0.0
# iter:  12 09:25:35   -12.317802c  -2.94  -3.24   +1.6,+0.0,+0.0
# iter:  13 09:26:07   -12.317887c  -3.12  -3.13   +1.6,+0.0,-0.0
# iter:  14 09:26:38   -12.318010c  -3.29  -3.79   +1.6,+0.0,+0.0
# iter:  15 09:27:10   -12.318048c  -3.44  -3.97   +1.6,+0.0,+0.0
# iter:  16 09:27:41   -12.318323c  -3.58  -4.03c  +1.6,+0.0,-0.0
# iter:  17 09:28:12   -12.318371c  -3.72  -4.15c  +1.6,+0.0,-0.0
# iter:  18 09:28:43   -12.318384c  -3.86  -4.20c  +1.6,+0.0,-0.0
# iter:  19 09:29:13   -12.318444c  -4.00  -4.15c  +1.6,+0.0,-0.0
# iter:  20 09:29:44   -12.318451c  -4.15  -4.47c  +1.6,+0.0,+0.0
# iter:  21 09:30:15   -12.318480c  -4.28  -4.54c  +1.6,+0.0,-0.0
# iter:  22 09:30:46   -12.318493c  -4.42  -4.55c  +1.6,+0.0,+0.0
# iter:  23 09:31:16   -12.318496c  -4.57  -4.86c  +1.6,+0.0,+0.0
# iter:  24 09:31:47   -12.318493c  -4.71  -4.81c  +1.6,+0.0,+0.0
# iter:  25 09:32:18   -12.318497c  -4.85  -4.84c  +1.6,+0.0,+0.0
# iter:  26 09:32:48   -12.318504c  -5.00  -4.73c  +1.6,+0.0,+0.0
# iter:  27 09:33:19   -12.318495c  -5.14  -4.84c  +1.6,+0.0,+0.0
# iter:  28 09:33:50   -12.318525c  -5.27  -4.73c  +1.6,+0.0,+0.0
# iter:  29 09:34:21   -12.318524c  -5.41  -5.01c  +1.6,+0.0,+0.0
# iter:  30 09:34:52   -12.318528c  -5.55  -5.03c  +1.6,+0.0,+0.0
# iter:  31 09:35:22   -12.318521c  -5.69  -4.96c  +1.6,+0.0,+0.0
# iter:  32 09:35:53   -12.318526c  -5.82  -5.06c  +1.6,+0.0,+0.0
# iter:  33 09:36:24   -12.318548c  -5.96  -5.13c  +1.6,+0.0,+0.0
# iter:  34 09:36:55   -12.318555c  -6.09  -5.30c  +1.6,+0.0,+0.0
# iter:  35 09:37:26   -12.318557c  -6.23  -5.39c  +1.6,+0.0,+0.0
# iter:  36 09:37:57   -12.318564c  -6.36  -5.36c  +1.6,+0.0,+0.0
# iter:  37 09:38:28   -12.318565c  -6.50  -5.43c  +1.6,+0.0,+0.0
# iter:  38 09:38:59   -12.318565c  -6.63  -5.68c  +1.6,+0.0,+0.0
# iter:  39 09:39:30   -12.318565c  -6.77  -5.94c  +1.6,+0.0,+0.0
# iter:  40 09:40:00   -12.318565c  -6.92  -6.22c  +1.6,+0.0,+0.0
# iter:  41 09:40:31   -12.318565c  -7.06  -6.24c  +1.6,+0.0,+0.0
# iter:  42 09:41:02   -12.318565c  -7.20  -6.30c  +1.6,+0.0,+0.0
# iter:  43 09:41:32   -12.318565c  -7.34  -6.41c  +1.6,+0.0,+0.0
# iter:  44 09:42:03   -12.318566c  -7.49c -6.53c  +1.6,+0.0,+0.0
scf_steps: 44
energies:  # eV
  coulomb:          -7.655449
  zero:              0.067631
  xc:              -14.901105
  external:          0.000000
  kinetic:          10.188451
  spinorbit:         0.000000
  entropy:          -0.036188
  total:           -12.336660
  extrapolated:    -12.318566

dipole moment: [-3.997341, -6.922901, -4.468298]  # |e|*Ang

total magnetic moment: [1.573296, 0.018079, 0.000000]

local magnetic moments: [
  [ 1.132025, -0.007470,  0.000000],  # Ni 0
  [ 0.086178, -0.104925, -0.000000],  # I  1
  [ 0.086150, -0.104949,  0.000000]]  # I  2


Fermi level: -1.184 eV

kpt = [-0.467, -0.467, 0.000], weight = 0.004:
  Band      eig [eV]   occ [0-1]
     0       -64.956       1.000
   ...
    22        -3.077       1.000
    23        -2.944       1.000
    24        -2.854       1.000
    25        -2.284       1.000
    26        -2.148       1.000
    27        -2.116       1.000
    28        -1.732       0.996
    29        -1.640       0.990
    30        -0.779       0.017
    31        -0.723       0.010
    32         1.730       0.000
    33         2.433       0.000
    34         3.888       0.000
    35         4.651       0.000
    36         4.698       0.000
    37         4.814       0.000
   ...
    39         5.508       0.000

kpt = [-0.467, -0.400, 0.000], weight = 0.004:
  Band      eig [eV]   occ [0-1]
     0       -64.956       1.000
   ...
    22        -3.075       1.000
    23        -2.926       1.000
    24        -2.895       1.000
    25        -2.318       1.000
    26        -2.145       1.000
    27        -2.123       1.000
    28        -1.736       0.996
    29        -1.640       0.990
    30        -0.766       0.015
    31        -0.702       0.008
    32         1.583       0.000
    33         2.589       0.000
    34         3.626       0.000
    35         4.471       0.000
    36         4.631       0.000
    37         4.761       0.000
   ...
    39         6.045       0.000

kpt = [-0.467, -0.333, 0.000], weight = 0.004:
  Band      eig [eV]   occ [0-1]
     0       -64.956       1.000
   ...
    22        -3.020       1.000
    23        -2.932       1.000
    24        -2.824       1.000
    25        -2.348       1.000
    26        -2.147       1.000
    27        -2.119       1.000
    28        -1.763       0.997
    29        -1.593       0.984
    30        -0.846       0.033
    31        -0.710       0.009
    32         1.758       0.000
    33         2.578       0.000
    34         3.840       0.000
    35         4.459       0.000
    36         4.647       0.000
    37         4.934       0.000
   ...
    39         5.782       0.000
(only showing first 3 out of 225 k-points)

Gap: 0.283 eV
Transition (v -> c):
  (s=0, k=112, n=29, [0.00, 0.00, 0.00]) -> (s=0, k=176, n=30, [0.27, 0.27, 0.00])
# Writing to Band_Conv/gsq-82.gpw (mode='')

---

timing:  # [seconds]
  Total: 10607.954  # ━━━━━━━━━━━━━━━━━━━━━━━━━━━━━━━━━━━━━━━━━━━━━━━━━━━━━━━
  Init:     18.116  # 
  SCF:    1358.293  # ━━━━━━━

Max RSS: 4317.410  # MiB
