#  __  _  _
# | _ |_)|_||  |
# |__||  | ||/\| - 24.1.0

User:   s194113@n-62-29-10
Date:   Mon May  6 04:34:20 2024
Arch:   x86_64
Pid:    14705
CWD:    /work3/s194113/10302/10302_NM/NiI2
Python: 3.8.5
gpaw:   /zhome/87/8/147075/venv-name/gpaw/gpaw (10808453a8)
_gpaw:  /zhome/87/8/147075/venv-name/gpaw/
        _gpaw.cpython-38-x86_64-linux-gnu.so (10808453a8)
ase:    /zhome/87/8/147075/venv-name/ase/ase (version 3.23.0b1-c36115a2db)
numpy:  /zhome/87/8/147075/venv-name/lib/python3.8/site-packages/numpy (version 1.24.4)
scipy:  /zhome/87/8/147075/venv-name/lib/python3.8/site-packages/scipy (version 1.10.1)
libxc:  4.3.4
units:  Angstrom and eV
cores: 18
OpenMP: False
OMP_NUM_THREADS: 1

---
input parameters:
  kpts: 
    density: 8.0
    gamma: True
  magmoms: [[1.28782608, 0, 0], [0.19870794, 0, 0], [0.19870794, 0, 0]]
  mixer: 
    backend: 'pulay'
    beta: 0.05
    method: 'sum'
    nmaxold: 5
    weight: 100
  mode: 
    name: 'pw'
    ecut: 800.0
    qspiral: array([0.19444444, 0.        , 0.        ])
  parallel: 
    kpt: None
    domain: 1
    band: 1
    order: 'kdb'
    stridebands: False
    augment_grids: False
    sl_auto: False
    sl_default: None
    sl_diagonalize: None
    sl_inverse_cholesky: None
    sl_lcao: None
    sl_lrtddft: None
    use_elpa: False
    elpasolver: '2stage'
    buffer_size: None
    gpu: False
  symmetry: 
    point_group: False
    time_reversal: False
  xc: 
    name: 'LDA'

#                        
#                        
#                        
#                        
#                        
#              I         
#                        
#        Ni              
#          I             
#                        
#                        
#                        
#                        
#                        

atoms: [  # symbols, positions [Ang] and initial magnetic moments
  [ Ni, [   0.000000,    0.000000,    7.513573], [ 1.288,  0.000,  0.000]], # 0
  [  I, [   1.984831,    1.145943,    9.027147], [ 0.199,  0.000,  0.000]], # 1
  [  I, [   0.000000,    2.291885,    6.000000], [ 0.199,  0.000,  0.000]]] # 2

cell: [  # Ang
#     x            y            z
  [   3.969662,    0.000000,    0.000000],
  [  -1.984831,    3.437828,    0.000000],
  [   0.000000,    0.000000,   15.027147]]

periodic: [True      , True      , False     ]
lengths:  [  3.969662,   3.969662,  15.027147]  # Ang
angles:   [ 90.000000,  90.000000, 120.000000]

symmetry:
  number of symmetries: 1
  rotations: [
    [[ 1,  0,  0], [ 0,  1,  0], [ 0,  0,  1]]]

bz sampling:
  number of bz points: 225
  number of ibz points: 225
  monkhorst-pack size: [15, 15, 1]
  monkhorst-pack shift: [0, 0, 0]
  points and weights: [
    [[ -0.46666667,  -0.46666667,   0.00000000], 0.00444444],  # 0
    [[ -0.46666667,  -0.40000000,   0.00000000], 0.00444444],  # 1
    [[ -0.46666667,  -0.33333333,   0.00000000], 0.00444444],  # 2
    [[ -0.46666667,  -0.26666667,   0.00000000], 0.00444444],  # 3
    [[ -0.46666667,  -0.20000000,   0.00000000], 0.00444444],  # 4
    [[ -0.46666667,  -0.13333333,   0.00000000], 0.00444444],  # 5
    [[ -0.46666667,  -0.06666667,   0.00000000], 0.00444444],  # 6
    [[ -0.46666667,   0.00000000,   0.00000000], 0.00444444],  # 7
    [[ -0.46666667,   0.06666667,   0.00000000], 0.00444444],  # 8
    [[ -0.46666667,   0.13333333,   0.00000000], 0.00444444],  # 9
    # ...
    [[  0.46666667,   0.46666667,   0.00000000], 0.00444444]]  # 224

plane wave coefficients: 10580
cutoff: 800.0 eV

spin-components: 4  # (non-collinear spins)
bands: 40
valence electrons: 30.0
spin-degeneracy: 1
dtype: complex128

memory:
    wave functions: 3_041_856_000  # bytes  (168_992_000 per core)

parallelization:
    kpt:    18
    domain: 1
    band:   1

density:
  components: 4
  grid points: [ 27  27 100]
  charge: 0.0  # |e|

potential:
  grid points: [ 27  27 100]

species:
  Ni:
    name: Nickel
    id: 1802175e8de9ea26d9f4394ec1a7d564
    Z: 28.0
    valence: 16
    core: 12
    charge: 0.0
    file: /zhome/86/d/1666/PAW/gpaw-setups-0.9.20000/Ni.LDA.gz
    compensation charges: {type: gauss,
                           rc: 0.36,
                           lmax: 2}
    cutoffs: {filter: 2.14,
              core: 1.98}
    valence states:
      #              energy  rcut
      - 4s(2.00)    -5.858   1.164
      - 3p(6.00)   -71.266   1.207
      - 4p(0.00)    -1.338   1.207
      - 3d(8.00)    -9.141   1.138
      -  s          21.353   1.164
      -  d          18.071   1.138
  
    # Using partial waves for Ni as LCAO basis

  I:
    name: Iodine
    id: b559721c0c096a7b4c8fc0e0f4de5cf4
    Z: 53.0
    valence: 7
    core: 46
    charge: 0.0
    file: /zhome/86/d/1666/PAW/gpaw-setups-0.9.20000/I.LDA.gz
    compensation charges: {type: gauss,
                           rc: 0.37,
                           lmax: 2}
    cutoffs: {filter: 2.06,
              core: 2.90}
    valence states:
      #              energy  rcut
      - 5s(2.00)   -17.626   1.164
      - 5p(5.00)    -7.241   1.164
      -  s           9.585   1.164
      -  p          19.970   1.164
      -  d           0.000   1.164
  
    # Using partial waves for I as LCAO basis

Reference energy: -428067.566327  # eV

eigensolver:
  name: 'Davidson'
  niter: 2
  converge_bands: 'occupied'
Density mixing:
  Method: sum
  Backend: pulay
  Linear mixing parameter: 0.05
  old densities: 5
  Damping of long wavelength oscillations: 100
occupation numbers:
  Fermi-Dirac:
    width: 0.1000  # eV
  

poisson solver:
  ecut: 6400.0  # eV

xc functional:
  name: None

convergence criteria:
- Maximum [total energy] change in last 3 cyles: 0.0005 eV / valence electron
- Maximum integral of absolute [dens]ity change: 0.0001 electrons / valence electron
- Maximum integral of absolute [eigenst]ate change: 4e-08 eV^2 / valence electron
maximum number of iterations: 333

#      iter     time        total  log10-change:
#                          energy   eigst   dens
# iter:   1 04:35:07   -13.745229                  +1.7,+0.0,+0.0
# iter:   2 04:35:38   -12.664175   -0.29  -1.32   +1.5,-0.0,+0.0
# iter:   3 04:36:10   -12.252749   -0.67  -1.46   +1.5,-0.0,-0.0
# iter:   4 04:36:41   -12.322136   -1.36  -1.68   +1.5,-0.0,+0.0
# iter:   5 04:37:12   -12.489950   -1.54  -1.66   +1.5,+0.0,+0.0
# iter:   6 04:37:43   -12.338433   -1.78  -1.83   +1.6,+0.0,+0.0
# iter:   7 04:38:15   -12.320499   -2.06  -2.17   +1.6,+0.0,-0.0
# iter:   8 04:38:46   -12.315514   -2.32  -2.35   +1.6,+0.0,+0.0
# iter:   9 04:39:17   -12.314831c  -2.46  -2.60   +1.6,+0.0,+0.0
# iter:  10 04:39:49   -12.315996c  -2.74  -3.03   +1.6,+0.0,-0.0
# iter:  11 04:40:20   -12.316180c  -2.92  -2.98   +1.6,+0.0,-0.0
# iter:  12 04:40:51   -12.315592c  -3.10  -3.15   +1.6,+0.0,+0.0
# iter:  13 04:41:22   -12.315570c  -3.26  -3.69   +1.6,+0.0,-0.0
# iter:  14 04:41:54   -12.315723c  -3.42  -3.87   +1.6,+0.0,-0.0
# iter:  15 04:42:25   -12.315848c  -3.58  -3.95   +1.6,+0.0,-0.0
# iter:  16 04:42:56   -12.315958c  -3.73  -4.13c  +1.6,+0.0,-0.0
# iter:  17 04:43:27   -12.316098c  -3.89  -4.23c  +1.6,+0.0,-0.0
# iter:  18 04:43:58   -12.316139c  -4.04  -4.28c  +1.6,+0.0,-0.0
# iter:  19 04:44:30   -12.316151c  -4.19  -4.46c  +1.6,+0.0,-0.0
# iter:  20 04:45:01   -12.316195c  -4.34  -4.51c  +1.6,+0.0,-0.0
# iter:  21 04:45:33   -12.316253c  -4.50  -4.56c  +1.6,+0.0,-0.0
# iter:  22 04:46:04   -12.316261c  -4.64  -4.59c  +1.6,+0.0,-0.0
# iter:  23 04:46:36   -12.316282c  -4.78  -4.72c  +1.6,+0.0,-0.0
# iter:  24 04:47:07   -12.316294c  -4.92  -4.89c  +1.6,+0.0,-0.0
# iter:  25 04:47:39   -12.316311c  -5.07  -5.14c  +1.6,+0.0,-0.0
# iter:  26 04:48:10   -12.316331c  -5.22  -5.19c  +1.6,+0.0,-0.0
# iter:  27 04:48:42   -12.316335c  -5.36  -5.35c  +1.6,+0.0,-0.0
# iter:  28 04:49:13   -12.316343c  -5.50  -5.40c  +1.6,+0.0,-0.0
# iter:  29 04:49:45   -12.316336c  -5.64  -5.40c  +1.6,+0.0,-0.0
# iter:  30 04:50:16   -12.316339c  -5.79  -5.51c  +1.6,+0.0,-0.0
# iter:  31 04:50:48   -12.316337c  -5.93  -5.60c  +1.6,+0.0,-0.0
# iter:  32 04:51:19   -12.316340c  -6.08  -5.76c  +1.6,+0.0,-0.0
# iter:  33 04:51:51   -12.316340c  -6.22  -6.02c  +1.6,+0.0,-0.0
# iter:  34 04:52:22   -12.316341c  -6.36  -6.05c  +1.6,+0.0,-0.0
# iter:  35 04:52:54   -12.316341c  -6.51  -6.09c  +1.6,+0.0,-0.0
# iter:  36 04:53:26   -12.316341c  -6.66  -6.25c  +1.6,+0.0,-0.0
# iter:  37 04:53:57   -12.316341c  -6.80  -6.28c  +1.6,+0.0,-0.0
# iter:  38 04:54:29   -12.316341c  -6.95  -6.32c  +1.6,+0.0,-0.0
# iter:  39 04:55:00   -12.316341c  -7.09  -6.39c  +1.6,+0.0,-0.0
# iter:  40 04:55:32   -12.316340c  -7.24  -6.68c  +1.6,+0.0,-0.0
# iter:  41 04:56:03   -12.316340c  -7.39  -6.77c  +1.6,+0.0,-0.0
# iter:  42 04:56:35   -12.316340c  -7.54c -6.76c  +1.6,+0.0,-0.0
scf_steps: 42
energies:  # eV
  coulomb:          -7.719527
  zero:              0.067525
  xc:              -14.913499
  external:          0.000000
  kinetic:          10.268535
  spinorbit:         0.000000
  entropy:          -0.038750
  total:           -12.335715
  extrapolated:    -12.316340

dipole moment: [-4.078502, -7.052463, -5.030224]  # |e|*Ang

total magnetic moment: [1.647867, 0.014369, -0.000000]

local magnetic moments: [
  [ 1.135794, -0.006045, -0.000000],  # Ni 0
  [ 0.100878, -0.112976, -0.000000],  # I  1
  [ 0.140059, -0.057649, -0.000000]]  # I  2


Fermi level: -1.178 eV

kpt = [-0.467, -0.467, 0.000], weight = 0.004:
  Band      eig [eV]   occ [0-1]
     0       -64.960       1.000
   ...
    22        -3.092       1.000
    23        -2.989       1.000
    24        -2.857       1.000
    25        -2.291       1.000
    26        -2.165       1.000
    27        -2.106       1.000
    28        -1.686       0.994
    29        -1.583       0.983
    30        -0.735       0.012
    31        -0.660       0.006
    32         1.629       0.000
    33         2.286       0.000
    34         3.688       0.000
    35         4.447       0.000
    36         4.498       0.000
    37         4.843       0.000
   ...
    39         5.125       0.000

kpt = [-0.467, -0.400, 0.000], weight = 0.004:
  Band      eig [eV]   occ [0-1]
     0       -64.960       1.000
   ...
    22        -3.078       1.000
    23        -2.913       1.000
    24        -2.871       1.000
    25        -2.279       1.000
    26        -2.130       1.000
    27        -2.102       1.000
    28        -1.725       0.996
    29        -1.672       0.993
    30        -0.760       0.015
    31        -0.717       0.010
    32         1.718       0.000
    33         2.514       0.000
    34         3.744       0.000
    35         4.397       0.000
    36         4.709       0.000
    37         4.939       0.000
   ...
    39         5.704       0.000

kpt = [-0.467, -0.333, 0.000], weight = 0.004:
  Band      eig [eV]   occ [0-1]
     0       -64.960       1.000
   ...
    22        -3.015       1.000
    23        -2.916       1.000
    24        -2.772       1.000
    25        -2.268       1.000
    26        -2.133       1.000
    27        -2.057       1.000
    28        -1.813       0.998
    29        -1.697       0.994
    30        -0.905       0.061
    31        -0.754       0.014
    32         2.107       0.000
    33         2.606       0.000
    34         4.119       0.000
    35         4.561       0.000
    36         4.756       0.000
    37         5.013       0.000
   ...
    39         5.604       0.000
(only showing first 3 out of 225 k-points)

Gap: 0.185 eV
Transition (v -> c):
  (s=0, k=112, n=29, [0.00, 0.00, 0.00]) -> (s=0, k=48, n=30, [-0.27, -0.27, 0.00])
# Writing to Band_Conv/gsq-14.gpw (mode='')

---

timing:  # [seconds]
  Total: 1336.622  # ━━━━━━━━━━━━━━━━━━━━━━━━━━━━━━━━━━━━━━━━━━━━━━━━━━━━━━━━
  Init:    18.146  # ━
  SCF:   1316.758  # ━━━━━━━━━━━━━━━━━━━━━━━━━━━━━━━━━━━━━━━━━━━━━━━━━━━━━━━

Max RSS: 1416.930  # MiB
