#  __  _  _
# | _ |_)|_||  |
# |__||  | ||/\| - 24.1.0

User:   s194113@n-62-29-10
Date:   Tue May  7 05:15:02 2024
Arch:   x86_64
Pid:    14705
CWD:    /work3/s194113/10302/10302_NM/NiI2
Python: 3.8.5
gpaw:   /zhome/87/8/147075/venv-name/gpaw/gpaw (10808453a8)
_gpaw:  /zhome/87/8/147075/venv-name/gpaw/
        _gpaw.cpython-38-x86_64-linux-gnu.so (10808453a8)
ase:    /zhome/87/8/147075/venv-name/ase/ase (version 3.23.0b1-c36115a2db)
numpy:  /zhome/87/8/147075/venv-name/lib/python3.8/site-packages/numpy (version 1.24.4)
scipy:  /zhome/87/8/147075/venv-name/lib/python3.8/site-packages/scipy (version 1.10.1)
libxc:  4.3.4
units:  Angstrom and eV
cores: 18
OpenMP: False
OMP_NUM_THREADS: 1

---
input parameters:
  kpts: 
    density: 8.0
    gamma: True
  magmoms: [[1.28782608, 0, 0], [0.19870794, 0, 0], [0.19870794, 0, 0]]
  mixer: 
    backend: 'pulay'
    beta: 0.05
    method: 'sum'
    nmaxold: 5
    weight: 100
  mode: 
    name: 'pw'
    ecut: 800.0
    qspiral: array([0.21705426, 0.21705426, 0.        ])
  parallel: 
    kpt: None
    domain: 1
    band: 1
    order: 'kdb'
    stridebands: False
    augment_grids: False
    sl_auto: False
    sl_default: None
    sl_diagonalize: None
    sl_inverse_cholesky: None
    sl_lcao: None
    sl_lrtddft: None
    use_elpa: False
    elpasolver: '2stage'
    buffer_size: None
    gpu: False
  symmetry: 
    point_group: False
    time_reversal: False
  xc: 
    name: 'LDA'

#                        
#                        
#                        
#                        
#                        
#              I         
#                        
#        Ni              
#          I             
#                        
#                        
#                        
#                        
#                        

atoms: [  # symbols, positions [Ang] and initial magnetic moments
  [ Ni, [   0.000000,    0.000000,    7.513573], [ 1.288,  0.000,  0.000]], # 0
  [  I, [   1.984831,    1.145943,    9.027147], [ 0.199,  0.000,  0.000]], # 1
  [  I, [   0.000000,    2.291885,    6.000000], [ 0.199,  0.000,  0.000]]] # 2

cell: [  # Ang
#     x            y            z
  [   3.969662,    0.000000,    0.000000],
  [  -1.984831,    3.437828,    0.000000],
  [   0.000000,    0.000000,   15.027147]]

periodic: [True      , True      , False     ]
lengths:  [  3.969662,   3.969662,  15.027147]  # Ang
angles:   [ 90.000000,  90.000000, 120.000000]

symmetry:
  number of symmetries: 1
  rotations: [
    [[ 1,  0,  0], [ 0,  1,  0], [ 0,  0,  1]]]

bz sampling:
  number of bz points: 225
  number of ibz points: 225
  monkhorst-pack size: [15, 15, 1]
  monkhorst-pack shift: [0, 0, 0]
  points and weights: [
    [[ -0.46666667,  -0.46666667,   0.00000000], 0.00444444],  # 0
    [[ -0.46666667,  -0.40000000,   0.00000000], 0.00444444],  # 1
    [[ -0.46666667,  -0.33333333,   0.00000000], 0.00444444],  # 2
    [[ -0.46666667,  -0.26666667,   0.00000000], 0.00444444],  # 3
    [[ -0.46666667,  -0.20000000,   0.00000000], 0.00444444],  # 4
    [[ -0.46666667,  -0.13333333,   0.00000000], 0.00444444],  # 5
    [[ -0.46666667,  -0.06666667,   0.00000000], 0.00444444],  # 6
    [[ -0.46666667,   0.00000000,   0.00000000], 0.00444444],  # 7
    [[ -0.46666667,   0.06666667,   0.00000000], 0.00444444],  # 8
    [[ -0.46666667,   0.13333333,   0.00000000], 0.00444444],  # 9
    # ...
    [[  0.46666667,   0.46666667,   0.00000000], 0.00444444]]  # 224

plane wave coefficients: 10580
cutoff: 800.0 eV

spin-components: 4  # (non-collinear spins)
bands: 40
valence electrons: 30.0
spin-degeneracy: 1
dtype: complex128

memory:
    wave functions: 3_041_856_000  # bytes  (168_992_000 per core)

parallelization:
    kpt:    18
    domain: 1
    band:   1

density:
  components: 4
  grid points: [ 27  27 100]
  charge: 0.0  # |e|

potential:
  grid points: [ 27  27 100]

species:
  Ni:
    name: Nickel
    id: 1802175e8de9ea26d9f4394ec1a7d564
    Z: 28.0
    valence: 16
    core: 12
    charge: 0.0
    file: /zhome/86/d/1666/PAW/gpaw-setups-0.9.20000/Ni.LDA.gz
    compensation charges: {type: gauss,
                           rc: 0.36,
                           lmax: 2}
    cutoffs: {filter: 2.14,
              core: 1.98}
    valence states:
      #              energy  rcut
      - 4s(2.00)    -5.858   1.164
      - 3p(6.00)   -71.266   1.207
      - 4p(0.00)    -1.338   1.207
      - 3d(8.00)    -9.141   1.138
      -  s          21.353   1.164
      -  d          18.071   1.138
  
    # Using partial waves for Ni as LCAO basis

  I:
    name: Iodine
    id: b559721c0c096a7b4c8fc0e0f4de5cf4
    Z: 53.0
    valence: 7
    core: 46
    charge: 0.0
    file: /zhome/86/d/1666/PAW/gpaw-setups-0.9.20000/I.LDA.gz
    compensation charges: {type: gauss,
                           rc: 0.37,
                           lmax: 2}
    cutoffs: {filter: 2.06,
              core: 2.90}
    valence states:
      #              energy  rcut
      - 5s(2.00)   -17.626   1.164
      - 5p(5.00)    -7.241   1.164
      -  s           9.585   1.164
      -  p          19.970   1.164
      -  d           0.000   1.164
  
    # Using partial waves for I as LCAO basis

Reference energy: -428067.566327  # eV

eigensolver:
  name: 'Davidson'
  niter: 2
  converge_bands: 'occupied'
Density mixing:
  Method: sum
  Backend: pulay
  Linear mixing parameter: 0.05
  old densities: 5
  Damping of long wavelength oscillations: 100
occupation numbers:
  Fermi-Dirac:
    width: 0.1000  # eV
  

poisson solver:
  ecut: 6400.0  # eV

xc functional:
  name: None

convergence criteria:
- Maximum [total energy] change in last 3 cyles: 0.0005 eV / valence electron
- Maximum integral of absolute [dens]ity change: 0.0001 electrons / valence electron
- Maximum integral of absolute [eigenst]ate change: 4e-08 eV^2 / valence electron
maximum number of iterations: 333

#      iter     time        total  log10-change:
#                          energy   eigst   dens
# iter:   1 05:15:49   -13.338136                  +1.7,+0.0,+0.0
# iter:   2 05:16:19   -12.574629   +0.12  -1.31   +1.3,-0.0,-0.0
# iter:   3 05:16:50   -12.223809   -0.46  -1.46   +1.2,-0.0,+0.0
# iter:   4 05:17:21   -12.294102   -1.06  -1.68   +1.2,-0.0,-0.0
# iter:   5 05:17:51   -12.515163   -1.23  -1.67   +1.2,+0.0,-0.0
# iter:   6 05:18:22   -12.312146   -1.45  -1.78   +1.2,+0.0,-0.0
# iter:   7 05:18:53   -12.310410   -1.73  -2.21   +1.3,+0.0,-0.0
# iter:   8 05:19:24   -12.298525c  -1.89  -2.32   +1.3,+0.0,-0.0
# iter:   9 05:19:55   -12.299999c  -2.07  -2.77   +1.3,+0.0,-0.0
# iter:  10 05:20:25   -12.299944c  -2.27  -3.02   +1.3,+0.0,-0.0
# iter:  11 05:20:56   -12.300884c  -2.40  -3.13   +1.3,+0.0,-0.0
# iter:  12 05:21:27   -12.301055c  -2.57  -3.12   +1.3,+0.0,+0.0
# iter:  13 05:21:58   -12.301388c  -2.71  -3.73   +1.3,+0.0,+0.0
# iter:  14 05:22:29   -12.301320c  -2.85  -3.66   +1.3,+0.0,+0.0
# iter:  15 05:22:59   -12.301546c  -2.99  -3.75   +1.3,+0.0,+0.0
# iter:  16 05:23:30   -12.301794c  -3.13  -4.05c  +1.3,+0.0,+0.0
# iter:  17 05:24:01   -12.301688c  -3.26  -3.86   +1.3,+0.0,+0.0
# iter:  18 05:24:32   -12.301770c  -3.40  -4.05c  +1.3,+0.0,+0.0
# iter:  19 05:25:03   -12.301790c  -3.54  -4.24c  +1.3,+0.0,+0.0
# iter:  20 05:25:34   -12.301919c  -3.67  -4.24c  +1.3,+0.0,+0.0
# iter:  21 05:26:05   -12.302193c  -3.80  -4.17c  +1.3,+0.0,+0.0
# iter:  22 05:26:36   -12.302149c  -3.93  -4.39c  +1.3,+0.0,+0.0
# iter:  23 05:27:07   -12.302170c  -4.06  -4.56c  +1.3,+0.0,+0.0
# iter:  24 05:27:38   -12.302127c  -4.19  -4.74c  +1.3,+0.0,+0.0
# iter:  25 05:28:09   -12.302132c  -4.33  -4.81c  +1.3,+0.0,+0.0
# iter:  26 05:28:40   -12.302144c  -4.46  -4.95c  +1.3,+0.0,+0.0
# iter:  27 05:29:11   -12.302146c  -4.59  -5.00c  +1.3,+0.0,+0.0
# iter:  28 05:29:41   -12.302145c  -4.72  -5.07c  +1.3,+0.0,+0.0
# iter:  29 05:30:13   -12.302147c  -4.85  -5.03c  +1.3,+0.0,+0.0
# iter:  30 05:30:44   -12.302150c  -4.98  -5.06c  +1.3,+0.0,+0.0
# iter:  31 05:31:15   -12.302178c  -5.12  -5.07c  +1.3,+0.0,+0.0
# iter:  32 05:31:46   -12.302176c  -5.24  -5.21c  +1.3,+0.0,+0.0
# iter:  33 05:32:17   -12.302176c  -5.37  -5.25c  +1.3,+0.0,+0.0
# iter:  34 05:32:48   -12.302191c  -5.51  -5.28c  +1.3,+0.0,+0.0
# iter:  35 05:33:19   -12.302190c  -5.64  -5.65c  +1.3,+0.0,+0.0
# iter:  36 05:33:50   -12.302191c  -5.78  -5.77c  +1.3,+0.0,+0.0
# iter:  37 05:34:21   -12.302193c  -5.92  -6.01c  +1.3,+0.0,+0.0
# iter:  38 05:34:52   -12.302193c  -6.06  -6.18c  +1.3,+0.0,+0.0
# iter:  39 05:35:23   -12.302193c  -6.19  -6.29c  +1.3,+0.0,+0.0
# iter:  40 05:35:54   -12.302193c  -6.33  -6.32c  +1.3,+0.0,+0.0
# iter:  41 05:36:25   -12.302193c  -6.47  -6.43c  +1.3,+0.0,+0.0
# iter:  42 05:36:56   -12.302193c  -6.60  -6.54c  +1.3,+0.0,+0.0
# iter:  43 05:37:27   -12.302193c  -6.74  -6.67c  +1.3,+0.0,+0.0
# iter:  44 05:37:58   -12.302193c  -6.88  -6.87c  +1.3,+0.0,+0.0
# iter:  45 05:38:29   -12.302194c  -7.02  -6.91c  +1.3,+0.0,+0.0
# iter:  46 05:39:00   -12.302193c  -7.16  -6.99c  +1.3,+0.0,+0.0
# iter:  47 05:39:31   -12.302193c  -7.30  -7.01c  +1.3,+0.0,+0.0
# iter:  48 05:40:01   -12.302193c  -7.44c -7.14c  +1.3,+0.0,+0.0
scf_steps: 48
energies:  # eV
  coulomb:          -7.670122
  zero:              0.067633
  xc:              -14.884980
  external:          0.000000
  kinetic:          10.205940
  spinorbit:         0.000000
  entropy:          -0.041327
  total:           -12.322857
  extrapolated:    -12.302193

dipole moment: [-3.756634, -6.505842, -2.638223]  # |e|*Ang

total magnetic moment: [1.332238, 0.014930, 0.000000]

local magnetic moments: [
  [ 1.119267, -0.005766,  0.000000],  # Ni 0
  [ 0.016474, -0.080328,  0.000000],  # I  1
  [ 0.016405, -0.080342,  0.000000]]  # I  2


Fermi level: -1.192 eV

kpt = [-0.467, -0.467, 0.000], weight = 0.004:
  Band      eig [eV]   occ [0-1]
     0       -64.947       1.000
   ...
    22        -3.045       1.000
    23        -2.874       1.000
    24        -2.787       1.000
    25        -2.299       1.000
    26        -2.139       1.000
    27        -2.090       1.000
    28        -1.840       0.998
    29        -1.702       0.994
    30        -0.942       0.076
    31        -0.806       0.021
    32         2.140       0.000
    33         2.588       0.000
    34         4.515       0.000
    35         4.773       0.000
    36         4.977       0.000
    37         4.982       0.000
   ...
    39         5.090       0.000

kpt = [-0.467, -0.400, 0.000], weight = 0.004:
  Band      eig [eV]   occ [0-1]
     0       -64.947       1.000
   ...
    22        -3.017       1.000
    23        -2.879       1.000
    24        -2.843       1.000
    25        -2.367       1.000
    26        -2.154       1.000
    27        -2.130       1.000
    28        -1.729       0.995
    29        -1.653       0.990
    30        -0.829       0.026
    31        -0.796       0.019
    32         1.800       0.000
    33         2.587       0.000
    34         3.972       0.000
    35         4.599       0.000
    36         4.788       0.000
    37         4.825       0.000
   ...
    39         5.582       0.000

kpt = [-0.467, -0.333, 0.000], weight = 0.004:
  Band      eig [eV]   occ [0-1]
     0       -64.947       1.000
   ...
    22        -2.996       1.000
    23        -2.906       1.000
    24        -2.850       1.000
    25        -2.449       1.000
    26        -2.178       1.000
    27        -2.135       1.000
    28        -1.706       0.994
    29        -1.509       0.960
    30        -0.862       0.036
    31        -0.672       0.006
    32         1.644       0.000
    33         2.497       0.000
    34         3.668       0.000
    35         4.399       0.000
    36         4.622       0.000
    37         4.928       0.000
   ...
    39         5.629       0.000
(only showing first 3 out of 225 k-points)

Gap: 0.360 eV
Transition (v -> c):
  (s=0, k=157, n=29, [0.20, 0.00, 0.00]) -> (s=0, k=56, n=30, [-0.27, 0.27, 0.00])
# Writing to Band_Conv/gsq-72.gpw (mode='')

