#  __  _  _
# | _ |_)|_||  |
# |__||  | ||/\| - 24.1.0

User:   s194113@n-62-29-10
Date:   Tue May  7 02:40:33 2024
Arch:   x86_64
Pid:    14705
CWD:    /work3/s194113/10302/10302_NM/NiI2
Python: 3.8.5
gpaw:   /zhome/87/8/147075/venv-name/gpaw/gpaw (10808453a8)
_gpaw:  /zhome/87/8/147075/venv-name/gpaw/
        _gpaw.cpython-38-x86_64-linux-gnu.so (10808453a8)
ase:    /zhome/87/8/147075/venv-name/ase/ase (version 3.23.0b1-c36115a2db)
numpy:  /zhome/87/8/147075/venv-name/lib/python3.8/site-packages/numpy (version 1.24.4)
scipy:  /zhome/87/8/147075/venv-name/lib/python3.8/site-packages/scipy (version 1.10.1)
libxc:  4.3.4
units:  Angstrom and eV
cores: 18
OpenMP: False
OMP_NUM_THREADS: 1

---
input parameters:
  kpts: 
    density: 8.0
    gamma: True
  magmoms: [[1.28782608, 0, 0], [0.19870794, 0, 0], [0.19870794, 0, 0]]
  mixer: 
    backend: 'pulay'
    beta: 0.05
    method: 'sum'
    nmaxold: 5
    weight: 100
  mode: 
    name: 'pw'
    ecut: 800.0
    qspiral: array([0.26356589, 0.26356589, 0.        ])
  parallel: 
    kpt: None
    domain: 1
    band: 1
    order: 'kdb'
    stridebands: False
    augment_grids: False
    sl_auto: False
    sl_default: None
    sl_diagonalize: None
    sl_inverse_cholesky: None
    sl_lcao: None
    sl_lrtddft: None
    use_elpa: False
    elpasolver: '2stage'
    buffer_size: None
    gpu: False
  symmetry: 
    point_group: False
    time_reversal: False
  xc: 
    name: 'LDA'

#                        
#                        
#                        
#                        
#                        
#              I         
#                        
#        Ni              
#          I             
#                        
#                        
#                        
#                        
#                        

atoms: [  # symbols, positions [Ang] and initial magnetic moments
  [ Ni, [   0.000000,    0.000000,    7.513573], [ 1.288,  0.000,  0.000]], # 0
  [  I, [   1.984831,    1.145943,    9.027147], [ 0.199,  0.000,  0.000]], # 1
  [  I, [   0.000000,    2.291885,    6.000000], [ 0.199,  0.000,  0.000]]] # 2

cell: [  # Ang
#     x            y            z
  [   3.969662,    0.000000,    0.000000],
  [  -1.984831,    3.437828,    0.000000],
  [   0.000000,    0.000000,   15.027147]]

periodic: [True      , True      , False     ]
lengths:  [  3.969662,   3.969662,  15.027147]  # Ang
angles:   [ 90.000000,  90.000000, 120.000000]

symmetry:
  number of symmetries: 1
  rotations: [
    [[ 1,  0,  0], [ 0,  1,  0], [ 0,  0,  1]]]

bz sampling:
  number of bz points: 225
  number of ibz points: 225
  monkhorst-pack size: [15, 15, 1]
  monkhorst-pack shift: [0, 0, 0]
  points and weights: [
    [[ -0.46666667,  -0.46666667,   0.00000000], 0.00444444],  # 0
    [[ -0.46666667,  -0.40000000,   0.00000000], 0.00444444],  # 1
    [[ -0.46666667,  -0.33333333,   0.00000000], 0.00444444],  # 2
    [[ -0.46666667,  -0.26666667,   0.00000000], 0.00444444],  # 3
    [[ -0.46666667,  -0.20000000,   0.00000000], 0.00444444],  # 4
    [[ -0.46666667,  -0.13333333,   0.00000000], 0.00444444],  # 5
    [[ -0.46666667,  -0.06666667,   0.00000000], 0.00444444],  # 6
    [[ -0.46666667,   0.00000000,   0.00000000], 0.00444444],  # 7
    [[ -0.46666667,   0.06666667,   0.00000000], 0.00444444],  # 8
    [[ -0.46666667,   0.13333333,   0.00000000], 0.00444444],  # 9
    # ...
    [[  0.46666667,   0.46666667,   0.00000000], 0.00444444]]  # 224

plane wave coefficients: 10580
cutoff: 800.0 eV

spin-components: 4  # (non-collinear spins)
bands: 40
valence electrons: 30.0
spin-degeneracy: 1
dtype: complex128

memory:
    wave functions: 3_041_856_000  # bytes  (168_992_000 per core)

parallelization:
    kpt:    18
    domain: 1
    band:   1

density:
  components: 4
  grid points: [ 27  27 100]
  charge: 0.0  # |e|

potential:
  grid points: [ 27  27 100]

species:
  Ni:
    name: Nickel
    id: 1802175e8de9ea26d9f4394ec1a7d564
    Z: 28.0
    valence: 16
    core: 12
    charge: 0.0
    file: /zhome/86/d/1666/PAW/gpaw-setups-0.9.20000/Ni.LDA.gz
    compensation charges: {type: gauss,
                           rc: 0.36,
                           lmax: 2}
    cutoffs: {filter: 2.14,
              core: 1.98}
    valence states:
      #              energy  rcut
      - 4s(2.00)    -5.858   1.164
      - 3p(6.00)   -71.266   1.207
      - 4p(0.00)    -1.338   1.207
      - 3d(8.00)    -9.141   1.138
      -  s          21.353   1.164
      -  d          18.071   1.138
  
    # Using partial waves for Ni as LCAO basis

  I:
    name: Iodine
    id: b559721c0c096a7b4c8fc0e0f4de5cf4
    Z: 53.0
    valence: 7
    core: 46
    charge: 0.0
    file: /zhome/86/d/1666/PAW/gpaw-setups-0.9.20000/I.LDA.gz
    compensation charges: {type: gauss,
                           rc: 0.37,
                           lmax: 2}
    cutoffs: {filter: 2.06,
              core: 2.90}
    valence states:
      #              energy  rcut
      - 5s(2.00)   -17.626   1.164
      - 5p(5.00)    -7.241   1.164
      -  s           9.585   1.164
      -  p          19.970   1.164
      -  d           0.000   1.164
  
    # Using partial waves for I as LCAO basis

Reference energy: -428067.566327  # eV

eigensolver:
  name: 'Davidson'
  niter: 2
  converge_bands: 'occupied'
Density mixing:
  Method: sum
  Backend: pulay
  Linear mixing parameter: 0.05
  old densities: 5
  Damping of long wavelength oscillations: 100
occupation numbers:
  Fermi-Dirac:
    width: 0.1000  # eV
  

poisson solver:
  ecut: 6400.0  # eV

xc functional:
  name: None

convergence criteria:
- Maximum [total energy] change in last 3 cyles: 0.0005 eV / valence electron
- Maximum integral of absolute [dens]ity change: 0.0001 electrons / valence electron
- Maximum integral of absolute [eigenst]ate change: 4e-08 eV^2 / valence electron
maximum number of iterations: 333

#      iter     time        total  log10-change:
#                          energy   eigst   dens
# iter:   1 02:41:20   -13.063649                  +1.7,+0.0,+0.0
# iter:   2 02:41:51   -12.512363   +0.28  -1.31   +1.2,-0.0,+0.0
# iter:   3 02:42:22   -12.204278   -0.36  -1.46   +1.1,-0.0,-0.0
# iter:   4 02:42:54   -12.262950   -0.93  -1.68   +1.1,-0.0,+0.0
# iter:   5 02:43:25   -12.536035   -1.10  -1.67   +1.1,-0.0,+0.0
# iter:   6 02:43:56   -12.297249   -1.32  -1.74   +1.1,+0.0,+0.0
# iter:   7 02:44:26   -12.303003   -1.59  -2.24   +1.1,+0.0,+0.0
# iter:   8 02:44:57   -12.289776c  -1.75  -2.31   +1.1,+0.0,+0.0
# iter:   9 02:45:29   -12.291263c  -1.92  -2.76   +1.2,+0.0,-0.0
# iter:  10 02:46:00   -12.291561c  -2.10  -3.04   +1.2,+0.0,-0.0
# iter:  11 02:46:31   -12.292785c  -2.23  -3.11   +1.2,+0.0,+0.0
# iter:  12 02:47:03   -12.293073c  -2.39  -3.09   +1.2,+0.0,+0.0
# iter:  13 02:47:34   -12.293489c  -2.52  -3.71   +1.2,+0.0,-0.0
# iter:  14 02:48:05   -12.293513c  -2.65  -3.58   +1.2,+0.0,-0.0
# iter:  15 02:48:36   -12.293761c  -2.80  -3.48   +1.2,+0.0,-0.0
# iter:  16 02:49:07   -12.293866c  -2.94  -4.01c  +1.2,+0.0,-0.0
# iter:  17 02:49:38   -12.293865c  -3.07  -4.01c  +1.2,+0.0,-0.0
# iter:  18 02:50:09   -12.293933c  -3.20  -4.06c  +1.2,+0.0,-0.0
# iter:  19 02:50:40   -12.293970c  -3.33  -4.09c  +1.2,+0.0,-0.0
# iter:  20 02:51:10   -12.294001c  -3.46  -4.15c  +1.2,+0.0,-0.0
# iter:  21 02:51:41   -12.294055c  -3.59  -4.29c  +1.2,+0.0,-0.0
# iter:  22 02:52:12   -12.294238c  -3.73  -4.30c  +1.2,+0.0,-0.0
# iter:  23 02:52:43   -12.294280c  -3.86  -4.46c  +1.2,+0.0,-0.0
# iter:  24 02:53:14   -12.294315c  -3.99  -4.52c  +1.2,+0.0,+0.0
# iter:  25 02:53:44   -12.294425c  -4.12  -4.52c  +1.2,+0.0,-0.0
# iter:  26 02:54:15   -12.294376c  -4.26  -4.30c  +1.2,+0.0,-0.0
# iter:  27 02:54:46   -12.294388c  -4.40  -4.56c  +1.2,+0.0,-0.0
# iter:  28 02:55:17   -12.294471c  -4.52  -4.63c  +1.2,+0.0,+0.0
# iter:  29 02:55:48   -12.294491c  -4.66  -4.78c  +1.2,+0.0,-0.0
# iter:  30 02:56:18   -12.294490c  -4.78  -5.40c  +1.2,+0.0,-0.0
# iter:  31 02:56:49   -12.294491c  -4.91  -5.49c  +1.2,+0.0,-0.0
# iter:  32 02:57:20   -12.294492c  -5.05  -5.55c  +1.2,+0.0,-0.0
# iter:  33 02:57:51   -12.294494c  -5.18  -5.45c  +1.2,+0.0,-0.0
# iter:  34 02:58:22   -12.294488c  -5.31  -5.70c  +1.2,+0.0,-0.0
# iter:  35 02:58:53   -12.294498c  -5.44  -5.50c  +1.2,+0.0,-0.0
# iter:  36 02:59:24   -12.294500c  -5.57  -5.73c  +1.2,+0.0,-0.0
# iter:  37 02:59:55   -12.294505c  -5.70  -5.80c  +1.2,+0.0,-0.0
# iter:  38 03:00:26   -12.294505c  -5.83  -6.01c  +1.2,+0.0,-0.0
# iter:  39 03:00:57   -12.294505c  -5.96  -6.17c  +1.2,+0.0,-0.0
# iter:  40 03:01:28   -12.294504c  -6.10  -6.39c  +1.2,+0.0,-0.0
# iter:  41 03:01:59   -12.294504c  -6.23  -6.31c  +1.2,+0.0,-0.0
# iter:  42 03:02:30   -12.294504c  -6.35  -6.32c  +1.2,+0.0,-0.0
# iter:  43 03:03:00   -12.294502c  -6.50  -6.36c  +1.2,+0.0,-0.0
# iter:  44 03:03:32   -12.294504c  -6.64  -6.20c  +1.2,+0.0,-0.0
# iter:  45 03:04:02   -12.294503c  -6.78  -6.30c  +1.2,+0.0,-0.0
# iter:  46 03:04:33   -12.294503c  -6.92  -6.29c  +1.2,+0.0,-0.0
# iter:  47 03:05:04   -12.294504c  -7.06  -6.28c  +1.2,+0.0,-0.0
# iter:  48 03:05:35   -12.294504c  -7.20  -6.29c  +1.2,+0.0,-0.0
# iter:  49 03:06:05   -12.294504c  -7.33  -6.26c  +1.2,+0.0,-0.0
# iter:  50 03:06:36   -12.294504c  -7.46c -6.26c  +1.2,+0.0,-0.0
scf_steps: 50
energies:  # eV
  coulomb:          -7.690901
  zero:              0.067636
  xc:              -14.880209
  external:          0.000000
  kinetic:          10.230960
  spinorbit:         0.000000
  entropy:          -0.043978
  total:           -12.316493
  extrapolated:    -12.294504

dipole moment: [-3.622516, -6.273600, -1.649127]  # |e|*Ang

total magnetic moment: [1.199063, 0.009231, -0.000000]

local magnetic moments: [
  [ 1.113853, -0.003439, -0.000000],  # Ni 0
  [-0.004177, -0.047595, -0.000000],  # I  1
  [-0.004251, -0.047588, -0.000000]]  # I  2


Fermi level: -1.197 eV

kpt = [-0.467, -0.467, 0.000], weight = 0.004:
  Band      eig [eV]   occ [0-1]
     0       -64.942       1.000
   ...
    22        -3.036       1.000
    23        -2.834       1.000
    24        -2.776       1.000
    25        -2.314       1.000
    26        -2.128       1.000
    27        -2.085       1.000
    28        -1.862       0.999
    29        -1.755       0.996
    30        -0.976       0.100
    31        -0.865       0.035
    32         2.359       0.000
    33         2.607       0.000
    34         4.759       0.000
    35         4.839       0.000
    36         4.902       0.000
    37         4.914       0.000
   ...
    39         5.509       0.000

kpt = [-0.467, -0.400, 0.000], weight = 0.004:
  Band      eig [eV]   occ [0-1]
     0       -64.942       1.000
   ...
    22        -2.992       1.000
    23        -2.850       1.000
    24        -2.813       1.000
    25        -2.384       1.000
    26        -2.157       1.000
    27        -2.124       1.000
    28        -1.744       0.996
    29        -1.679       0.992
    30        -0.875       0.039
    31        -0.845       0.029
    32         2.048       0.000
    33         2.578       0.000
    34         4.347       0.000
    35         4.632       0.000
    36         4.806       0.000
    37         4.922       0.000
   ...
    39         5.308       0.000

kpt = [-0.467, -0.333, 0.000], weight = 0.004:
  Band      eig [eV]   occ [0-1]
     0       -64.942       1.000
   ...
    22        -2.958       1.000
    23        -2.899       1.000
    24        -2.823       1.000
    25        -2.458       1.000
    26        -2.203       1.000
    27        -2.123       1.000
    28        -1.692       0.993
    29        -1.505       0.956
    30        -0.882       0.041
    31        -0.704       0.007
    32         1.767       0.000
    33         2.470       0.000
    34         3.853       0.000
    35         4.428       0.000
    36         4.468       0.000
    37         4.933       0.000
   ...
    39         5.480       0.000
(only showing first 3 out of 225 k-points)

Gap: 0.363 eV
Transition (v -> c):
  (s=0, k=186, n=29, [0.33, -0.07, 0.00]) -> (s=0, k=14, n=30, [-0.47, 0.47, 0.00])
# Writing to Band_Conv/gsq-66.gpw (mode='')

---

timing:  # [seconds]
  Total: 3149.421  # ━━━━━━━━━━━━━━━━━━━━━━━━━━━━━━━━━━━━━━━━━━━━━━━━━━━━━━━━
  Init:    18.179  # ╸
  SCF:   1545.554  # ━━━━━━━━━━━━━━━━━━━━━━━━━━━╸

Max RSS: 3271.773  # MiB
