#  __  _  _
# | _ |_)|_||  |
# |__||  | ||/\| - 24.1.0

User:   s194113@n-62-29-10
Date:   Mon May  6 15:29:20 2024
Arch:   x86_64
Pid:    14705
CWD:    /work3/s194113/10302/10302_NM/NiI2
Python: 3.8.5
gpaw:   /zhome/87/8/147075/venv-name/gpaw/gpaw (10808453a8)
_gpaw:  /zhome/87/8/147075/venv-name/gpaw/
        _gpaw.cpython-38-x86_64-linux-gnu.so (10808453a8)
ase:    /zhome/87/8/147075/venv-name/ase/ase (version 3.23.0b1-c36115a2db)
numpy:  /zhome/87/8/147075/venv-name/lib/python3.8/site-packages/numpy (version 1.24.4)
scipy:  /zhome/87/8/147075/venv-name/lib/python3.8/site-packages/scipy (version 1.10.1)
libxc:  4.3.4
units:  Angstrom and eV
cores: 18
OpenMP: False
OMP_NUM_THREADS: 1

---
input parameters:
  kpts: 
    density: 8.0
    gamma: True
  magmoms: [[1.28782608, 0, 0], [0.19870794, 0, 0], [0.19870794, 0, 0]]
  mixer: 
    backend: 'pulay'
    beta: 0.05
    method: 'sum'
    nmaxold: 5
    weight: 100
  mode: 
    name: 'pw'
    ecut: 800.0
    qspiral: array([0.46031746, 0.07936508, 0.        ])
  parallel: 
    kpt: None
    domain: 1
    band: 1
    order: 'kdb'
    stridebands: False
    augment_grids: False
    sl_auto: False
    sl_default: None
    sl_diagonalize: None
    sl_inverse_cholesky: None
    sl_lcao: None
    sl_lrtddft: None
    use_elpa: False
    elpasolver: '2stage'
    buffer_size: None
    gpu: False
  symmetry: 
    point_group: False
    time_reversal: False
  xc: 
    name: 'LDA'

#                        
#                        
#                        
#                        
#                        
#              I         
#                        
#        Ni              
#          I             
#                        
#                        
#                        
#                        
#                        

atoms: [  # symbols, positions [Ang] and initial magnetic moments
  [ Ni, [   0.000000,    0.000000,    7.513573], [ 1.288,  0.000,  0.000]], # 0
  [  I, [   1.984831,    1.145943,    9.027147], [ 0.199,  0.000,  0.000]], # 1
  [  I, [   0.000000,    2.291885,    6.000000], [ 0.199,  0.000,  0.000]]] # 2

cell: [  # Ang
#     x            y            z
  [   3.969662,    0.000000,    0.000000],
  [  -1.984831,    3.437828,    0.000000],
  [   0.000000,    0.000000,   15.027147]]

periodic: [True      , True      , False     ]
lengths:  [  3.969662,   3.969662,  15.027147]  # Ang
angles:   [ 90.000000,  90.000000, 120.000000]

symmetry:
  number of symmetries: 1
  rotations: [
    [[ 1,  0,  0], [ 0,  1,  0], [ 0,  0,  1]]]

bz sampling:
  number of bz points: 225
  number of ibz points: 225
  monkhorst-pack size: [15, 15, 1]
  monkhorst-pack shift: [0, 0, 0]
  points and weights: [
    [[ -0.46666667,  -0.46666667,   0.00000000], 0.00444444],  # 0
    [[ -0.46666667,  -0.40000000,   0.00000000], 0.00444444],  # 1
    [[ -0.46666667,  -0.33333333,   0.00000000], 0.00444444],  # 2
    [[ -0.46666667,  -0.26666667,   0.00000000], 0.00444444],  # 3
    [[ -0.46666667,  -0.20000000,   0.00000000], 0.00444444],  # 4
    [[ -0.46666667,  -0.13333333,   0.00000000], 0.00444444],  # 5
    [[ -0.46666667,  -0.06666667,   0.00000000], 0.00444444],  # 6
    [[ -0.46666667,   0.00000000,   0.00000000], 0.00444444],  # 7
    [[ -0.46666667,   0.06666667,   0.00000000], 0.00444444],  # 8
    [[ -0.46666667,   0.13333333,   0.00000000], 0.00444444],  # 9
    # ...
    [[  0.46666667,   0.46666667,   0.00000000], 0.00444444]]  # 224

plane wave coefficients: 10580
cutoff: 800.0 eV

spin-components: 4  # (non-collinear spins)
bands: 40
valence electrons: 30.0
spin-degeneracy: 1
dtype: complex128

memory:
    wave functions: 3_041_856_000  # bytes  (168_992_000 per core)

parallelization:
    kpt:    18
    domain: 1
    band:   1

density:
  components: 4
  grid points: [ 27  27 100]
  charge: 0.0  # |e|

potential:
  grid points: [ 27  27 100]

species:
  Ni:
    name: Nickel
    id: 1802175e8de9ea26d9f4394ec1a7d564
    Z: 28.0
    valence: 16
    core: 12
    charge: 0.0
    file: /zhome/86/d/1666/PAW/gpaw-setups-0.9.20000/Ni.LDA.gz
    compensation charges: {type: gauss,
                           rc: 0.36,
                           lmax: 2}
    cutoffs: {filter: 2.14,
              core: 1.98}
    valence states:
      #              energy  rcut
      - 4s(2.00)    -5.858   1.164
      - 3p(6.00)   -71.266   1.207
      - 4p(0.00)    -1.338   1.207
      - 3d(8.00)    -9.141   1.138
      -  s          21.353   1.164
      -  d          18.071   1.138
  
    # Using partial waves for Ni as LCAO basis

  I:
    name: Iodine
    id: b559721c0c096a7b4c8fc0e0f4de5cf4
    Z: 53.0
    valence: 7
    core: 46
    charge: 0.0
    file: /zhome/86/d/1666/PAW/gpaw-setups-0.9.20000/I.LDA.gz
    compensation charges: {type: gauss,
                           rc: 0.37,
                           lmax: 2}
    cutoffs: {filter: 2.06,
              core: 2.90}
    valence states:
      #              energy  rcut
      - 5s(2.00)   -17.626   1.164
      - 5p(5.00)    -7.241   1.164
      -  s           9.585   1.164
      -  p          19.970   1.164
      -  d           0.000   1.164
  
    # Using partial waves for I as LCAO basis

Reference energy: -428067.566327  # eV

eigensolver:
  name: 'Davidson'
  niter: 2
  converge_bands: 'occupied'
Density mixing:
  Method: sum
  Backend: pulay
  Linear mixing parameter: 0.05
  old densities: 5
  Damping of long wavelength oscillations: 100
occupation numbers:
  Fermi-Dirac:
    width: 0.1000  # eV
  

poisson solver:
  ecut: 6400.0  # eV

xc functional:
  name: None

convergence criteria:
- Maximum [total energy] change in last 3 cyles: 0.0005 eV / valence electron
- Maximum integral of absolute [dens]ity change: 0.0001 electrons / valence electron
- Maximum integral of absolute [eigenst]ate change: 4e-08 eV^2 / valence electron
maximum number of iterations: 333

#      iter     time        total  log10-change:
#                          energy   eigst   dens
# iter:   1 15:30:07   -12.864969                  +1.7,+0.0,+0.0
# iter:   2 15:30:38   -12.439726   +0.35  -1.31   +1.1,-0.0,-0.0
# iter:   3 15:31:09   -12.161948   -0.30  -1.45   +1.0,-0.0,-0.0
# iter:   4 15:31:40   -12.218988   -0.84  -1.68   +1.0,-0.0,+0.0
# iter:   5 15:32:11   -12.557754   -1.01  -1.67   +1.0,-0.0,-0.0
# iter:   6 15:32:41   -12.249494   -1.22  -1.69   +1.0,-0.0,-0.0
# iter:   7 15:33:12   -12.257201   -1.51  -2.25   +1.0,+0.0,-0.0
# iter:   8 15:33:43   -12.250225c  -1.67  -2.34   +1.0,+0.0,-0.0
# iter:   9 15:34:14   -12.251702c  -1.82  -2.65   +1.1,+0.0,-0.0
# iter:  10 15:34:45   -12.252660c  -2.00  -3.05   +1.1,+0.0,-0.0
# iter:  11 15:35:15   -12.252228c  -2.14  -3.04   +1.1,+0.0,-0.0
# iter:  12 15:35:46   -12.254865c  -2.28  -3.13   +1.1,+0.0,-0.0
# iter:  13 15:36:17   -12.255545c  -2.41  -3.63   +1.1,+0.0,+0.0
# iter:  14 15:36:47   -12.255660c  -2.55  -3.71   +1.1,+0.0,+0.0
# iter:  15 15:37:18   -12.255976c  -2.68  -3.82   +1.1,+0.0,+0.0
# iter:  16 15:37:49   -12.256411c  -2.81  -4.00c  +1.1,+0.0,+0.0
# iter:  17 15:38:19   -12.256491c  -2.94  -4.05c  +1.1,+0.0,+0.0
# iter:  18 15:38:50   -12.256498c  -3.08  -4.04c  +1.1,+0.0,+0.0
# iter:  19 15:39:21   -12.256462c  -3.21  -4.03c  +1.1,+0.0,+0.0
# iter:  20 15:39:52   -12.256487c  -3.34  -4.00   +1.1,+0.0,+0.0
# iter:  21 15:40:23   -12.256650c  -3.47  -4.01c  +1.1,+0.0,+0.0
# iter:  22 15:40:53   -12.256595c  -3.60  -4.02c  +1.1,+0.0,+0.0
# iter:  23 15:41:24   -12.256564c  -3.73  -4.01c  +1.1,+0.0,+0.0
# iter:  24 15:41:54   -12.256736c  -3.86  -4.01c  +1.1,+0.0,+0.0
# iter:  25 15:42:25   -12.256789c  -3.99  -4.03c  +1.1,+0.0,+0.0
# iter:  26 15:42:56   -12.256874c  -4.12  -4.05c  +1.1,+0.0,-0.0
# iter:  27 15:43:26   -12.256994c  -4.25  -4.15c  +1.1,+0.0,+0.0
# iter:  28 15:43:57   -12.257237c  -4.38  -4.17c  +1.1,+0.0,+0.0
# iter:  29 15:44:27   -12.257300c  -4.51  -4.25c  +1.1,+0.0,+0.0
# iter:  30 15:44:58   -12.257378c  -4.64  -4.34c  +1.1,+0.0,+0.0
# iter:  31 15:45:29   -12.257416c  -4.77  -4.43c  +1.1,+0.0,+0.0
# iter:  32 15:45:59   -12.257626c  -4.89  -4.46c  +1.1,+0.0,+0.0
# iter:  33 15:46:30   -12.257655c  -5.03  -4.77c  +1.1,+0.0,+0.0
# iter:  34 15:47:01   -12.257690c  -5.17  -4.84c  +1.1,+0.0,+0.0
# iter:  35 15:47:32   -12.257695c  -5.30  -4.90c  +1.1,+0.0,+0.0
# iter:  36 15:48:02   -12.257688c  -5.43  -4.91c  +1.1,+0.0,+0.0
# iter:  37 15:48:33   -12.257663c  -5.57  -5.12c  +1.1,+0.0,+0.0
# iter:  38 15:49:03   -12.257660c  -5.71  -5.24c  +1.1,+0.0,+0.0
# iter:  39 15:49:34   -12.257662c  -5.85  -5.30c  +1.1,+0.0,+0.0
# iter:  40 15:50:04   -12.257661c  -5.99  -5.54c  +1.1,+0.0,+0.0
# iter:  41 15:50:35   -12.257667c  -6.14  -5.60c  +1.1,+0.0,+0.0
# iter:  42 15:51:05   -12.257668c  -6.28  -5.73c  +1.1,+0.0,+0.0
# iter:  43 15:51:36   -12.257668c  -6.42  -5.78c  +1.1,+0.0,+0.0
# iter:  44 15:52:06   -12.257668c  -6.57  -5.87c  +1.1,+0.0,+0.0
# iter:  45 15:52:37   -12.257668c  -6.71  -6.06c  +1.1,+0.0,+0.0
# iter:  46 15:53:07   -12.257668c  -6.86  -6.23c  +1.1,+0.0,+0.0
# iter:  47 15:53:38   -12.257669c  -7.00  -6.31c  +1.1,+0.0,+0.0
# iter:  48 15:54:09   -12.257669c  -7.15  -6.41c  +1.1,+0.0,+0.0
# iter:  49 15:54:40   -12.257670c  -7.29  -6.56c  +1.1,+0.0,+0.0
# iter:  50 15:55:10   -12.257670c  -7.43c -6.60c  +1.1,+0.0,+0.0
scf_steps: 50
energies:  # eV
  coulomb:          -8.000494
  zero:              0.067184
  xc:              -14.906742
  external:          0.000000
  kinetic:          10.615573
  spinorbit:         0.000000
  entropy:          -0.066381
  total:           -12.290860
  extrapolated:    -12.257670

dipole moment: [-3.435805, -6.198489, -0.722141]  # |e|*Ang

total magnetic moment: [1.123780, 0.001428, 0.000000]

local magnetic moments: [
  [ 1.110399, -0.000432,  0.000000],  # Ni 0
  [-0.054327,  0.000027,  0.000000],  # I  1
  [ 0.052644, -0.013421,  0.000000]]  # I  2


Fermi level: -1.199 eV

kpt = [-0.467, -0.467, 0.000], weight = 0.004:
  Band      eig [eV]   occ [0-1]
     0       -64.951       1.000
   ...
    22        -3.022       1.000
    23        -2.904       1.000
    24        -2.703       1.000
    25        -2.283       1.000
    26        -2.175       1.000
    27        -2.082       1.000
    28        -1.922       0.999
    29        -1.636       0.988
    30        -1.054       0.191
    31        -0.772       0.014
    32         2.475       0.000
    33         2.615       0.000
    34         4.274       0.000
    35         4.530       0.000
    36         5.137       0.000
    37         5.194       0.000
   ...
    39         5.771       0.000

kpt = [-0.467, -0.400, 0.000], weight = 0.004:
  Band      eig [eV]   occ [0-1]
     0       -64.951       1.000
   ...
    22        -2.958       1.000
    23        -2.918       1.000
    24        -2.716       1.000
    25        -2.340       1.000
    26        -2.158       1.000
    27        -2.096       1.000
    28        -1.806       0.998
    29        -1.631       0.987
    30        -0.987       0.108
    31        -0.779       0.015
    32         2.339       0.000
    33         2.541       0.000
    34         4.213       0.000
    35         4.667       0.000
    36         4.712       0.000
    37         4.997       0.000
   ...
    39         5.590       0.000

kpt = [-0.467, -0.333, 0.000], weight = 0.004:
  Band      eig [eV]   occ [0-1]
     0       -64.951       1.000
   ...
    22        -2.941       1.000
    23        -2.870       1.000
    24        -2.710       1.000
    25        -2.426       1.000
    26        -2.125       1.000
    27        -2.087       1.000
    28        -1.785       0.997
    29        -1.522       0.962
    30        -1.006       0.127
    31        -0.706       0.007
    32         2.167       0.000
    33         2.619       0.000
    34         3.948       0.000
    35         4.295       0.000
    36         4.450       0.000
    37         4.934       0.000
   ...
    39         5.531       0.000
(only showing first 3 out of 225 k-points)

Gap: 0.103 eV
Transition (v -> c):
  (s=0, k=52, n=29, [-0.27, 0.00, 0.00]) -> (s=0, k=116, n=30, [0.00, 0.27, 0.00])
# Writing to Band_Conv/gsq-41.gpw (mode='')

