#  __  _  _
# | _ |_)|_||  |
# |__||  | ||/\| - 24.1.0

User:   s194113@n-62-28-16
Date:   Wed Apr 24 12:37:39 2024
Arch:   x86_64
Pid:    15202
CWD:    /zhome/87/8/147075/10302/10302_NM/VBr2
Python: 3.8.5
gpaw:   /zhome/87/8/147075/venv-name/gpaw/gpaw (10808453a8)
_gpaw:  /zhome/87/8/147075/venv-name/gpaw/
        _gpaw.cpython-38-x86_64-linux-gnu.so (10808453a8)
ase:    /zhome/87/8/147075/venv-name/ase/ase (version 3.23.0b1-c36115a2db)
numpy:  /zhome/87/8/147075/venv-name/lib/python3.8/site-packages/numpy (version 1.24.4)
scipy:  /zhome/87/8/147075/venv-name/lib/python3.8/site-packages/scipy (version 1.10.1)
libxc:  4.3.4
units:  Angstrom and eV
cores: 12
OpenMP: False
OMP_NUM_THREADS: 1

---
input parameters:
  kpts: 
    density: 6.0
    gamma: True
  magmoms: [[2.64162512, 0, 0], [-0.02514574, 0, 0], [-0.02514574, 0, 0]]
  mixer: 
    backend: 'pulay'
    beta: 0.05
    method: 'sum'
    nmaxold: 5
    weight: 100
  mode: 
    name: 'pw'
    ecut: 600
    qspiral: array([0.05, 0.  , 0.  ])
  parallel: 
    kpt: None
    domain: 1
    band: 1
    order: 'kdb'
    stridebands: False
    augment_grids: False
    sl_auto: False
    sl_default: None
    sl_diagonalize: None
    sl_inverse_cholesky: None
    sl_lcao: None
    sl_lrtddft: None
    use_elpa: False
    elpasolver: '2stage'
    buffer_size: None
    gpu: False
  symmetry: 
    point_group: False
    time_reversal: False
  xc: 
    name: 'LDA'

#                        
#                        
#                        
#                        
#              Br        
#                        
#                        
#        V Br            
#                        
#                        
#                        
#                        
#                        

atoms: [  # symbols, positions [Ang] and initial magnetic moments
  [  V, [   0.000000,    0.000000,    2.948555], [ 2.642,  0.000,  0.000]], # 0
  [ Br, [   1.920224,    1.108642,    4.397111], [-0.025,  0.000,  0.000]], # 1
  [ Br, [   0.000000,    2.217284,    1.500000], [-0.025,  0.000,  0.000]]] # 2

cell: [  # Ang
#     x            y            z
  [   3.840448,    0.000000,    0.000000],
  [  -1.920224,    3.325925,    0.000000],
  [   0.000000,    0.000000,    5.897111]]

periodic: [True      , True      , False     ]
lengths:  [  3.840448,   3.840448,   5.897111]  # Ang
angles:   [ 90.000000,  90.000000, 120.000000]

symmetry:
  number of symmetries: 1
  rotations: [
    [[ 1,  0,  0], [ 0,  1,  0], [ 0,  0,  1]]]

bz sampling:
  number of bz points: 144
  number of ibz points: 144
  monkhorst-pack size: [12, 12, 1]
  monkhorst-pack shift: [0.041666666666666664, 0.041666666666666664, 0.0]
  points and weights: [
    [[ -0.41666667,  -0.41666667,   0.00000000], 0.00694444],  # 0
    [[ -0.41666667,  -0.33333333,   0.00000000], 0.00694444],  # 1
    [[ -0.41666667,  -0.25000000,   0.00000000], 0.00694444],  # 2
    [[ -0.41666667,  -0.16666667,   0.00000000], 0.00694444],  # 3
    [[ -0.41666667,  -0.08333333,   0.00000000], 0.00694444],  # 4
    [[ -0.41666667,  -0.00000000,   0.00000000], 0.00694444],  # 5
    [[ -0.41666667,   0.08333333,   0.00000000], 0.00694444],  # 6
    [[ -0.41666667,   0.16666667,   0.00000000], 0.00694444],  # 7
    [[ -0.41666667,   0.25000000,   0.00000000], 0.00694444],  # 8
    [[ -0.41666667,   0.33333333,   0.00000000], 0.00694444],  # 9
    # ...
    [[  0.50000000,   0.50000000,   0.00000000], 0.00694444]]  # 143

plane wave coefficients: 2534
cutoff: 600.0 eV

spin-components: 4  # (non-collinear spins)
bands: 42
valence electrons: 27.0
spin-degeneracy: 1
dtype: complex128

memory:
    wave functions: 486_549_504  # bytes  (40_545_792 per core)

parallelization:
    kpt:    12
    domain: 1
    band:   1

density:
  components: 4
  grid points: [24 24 35]
  charge: 0.0  # |e|

potential:
  grid points: [24 24 35]

species:
  V:
    name: Vanadium
    id: 7939ce69e6bb5930668dfcf9bb1979c3
    Z: 23.0
    valence: 13
    core: 10
    charge: 0.0
    file: /zhome/86/d/1666/PAW/gpaw-setups-0.9.20000/V.LDA.gz
    compensation charges: {type: gauss,
                           rc: 0.37,
                           lmax: 2}
    cutoffs: {filter: 2.14,
              core: 0.96}
    valence states:
      #              energy  rcut
      - 3s(2.00)   -69.819   1.254
      - 4s(2.00)    -4.846   1.254
      - 3p(6.00)   -43.961   1.281
      - 4p(0.00)    -1.526   1.281
      - 3d(3.00)    -5.381   1.169
      -  d          21.830   1.169
  
    # Using partial waves for V as LCAO basis

  Br:
    name: Bromine
    id: 10a25bbcb3273ec7d8d7f6fc01d2618d
    Z: 35.0
    valence: 7
    core: 28
    charge: 0.0
    file: /zhome/86/d/1666/PAW/gpaw-setups-0.9.20000/Br.LDA.gz
    compensation charges: {type: gauss,
                           rc: 0.35,
                           lmax: 2}
    cutoffs: {filter: 1.98,
              core: 2.38}
    valence states:
      #              energy  rcut
      - 4s(2.00)   -20.306   1.111
      - 4p(5.00)    -8.003   1.111
      -  s           6.906   1.111
      -  p          19.208   1.111
      -  d           0.000   1.111
  
    # Using partial waves for Br as LCAO basis

Reference energy: -167392.690611  # eV

eigensolver:
  name: 'Davidson'
  niter: 2
  converge_bands: 'occupied'
Density mixing:
  Method: sum
  Backend: pulay
  Linear mixing parameter: 0.05
  old densities: 5
  Damping of long wavelength oscillations: 100
occupation numbers:
  Fermi-Dirac:
    width: 0.1000  # eV
  

poisson solver:
  ecut: 4800.0  # eV

xc functional:
  name: None

convergence criteria:
- Maximum [total energy] change in last 3 cyles: 0.0005 eV / valence electron
- Maximum integral of absolute [dens]ity change: 0.0001 electrons / valence electron
- Maximum integral of absolute [eigenst]ate change: 4e-08 eV^2 / valence electron
maximum number of iterations: 333

#      iter     time        total  log10-change:
#                          energy   eigst   dens
# iter:   1 12:38:02   -15.983647                  +2.6,+0.0,+0.0
# iter:   2 12:38:12   -15.944162   -0.76  -1.41   +2.7,+0.0,-0.0
# iter:   3 12:38:21   -15.803965   -1.27  -1.45   +2.8,+0.0,-0.0
# iter:   4 12:38:30   -15.828892   -1.76  -1.59   +2.9,-0.0,+0.0
# iter:   5 12:38:40   -15.861968   -2.52  -1.70   +3.0,-0.0,+0.0
# iter:   6 12:38:49   -15.856665   -3.12  -2.24   +3.0,-0.0,+0.0
# iter:   7 12:38:58   -15.855602c  -2.88  -2.35   +3.0,-0.0,+0.0
# iter:   8 12:39:07   -15.854060c  -3.96  -2.59   +3.0,-0.0,+0.0
# iter:   9 12:39:17   -15.854001c  -4.66  -2.88   +3.0,-0.0,-0.0
# iter:  10 12:39:26   -15.854075c  -4.72  -3.14   +3.0,-0.0,+0.0
# iter:  11 12:39:35   -15.854068c  -5.89  -3.73   +3.0,-0.0,+0.0
# iter:  12 12:39:44   -15.854041c  -5.95  -3.77   +3.0,-0.0,-0.0
# iter:  13 12:39:53   -15.854040c  -6.28  -4.20c  +3.0,-0.0,+0.0
# iter:  14 12:40:02   -15.854039c  -7.15  -4.35c  +3.0,-0.0,-0.0
# iter:  15 12:40:12   -15.854037c  -7.55c -4.40c  +3.0,-0.0,+0.0
scf_steps: 15
energies:  # eV
  coulomb:          -5.147246
  zero:              0.041565
  xc:              -16.868417
  external:          0.000000
  kinetic:           6.124572
  spinorbit:         0.000000
  entropy:          -0.009022
  total:           -15.858548
  extrapolated:    -15.854037

dipole moment: [-5.120088, -8.921132, -3.753631]  # |e|*Ang

total magnetic moment: [2.991296, -0.000380, 0.000000]

local magnetic moments: [
  [ 2.624818, -0.000018,  0.000000],  # V  0
  [-0.024557,  0.005208,  0.000000],  # Br 1
  [-0.024964,  0.002636, -0.000000]]  # Br 2


Fermi level: 4.957 eV

kpt = [-0.417, -0.417, 0.000], weight = 0.007:
  Band      eig [eV]   occ [0-1]
     0       -59.793       1.000
   ...
    19         0.130       1.000
    20         0.348       1.000
    21         0.388       1.000
    22         0.581       1.000
    23         0.606       1.000
    24         3.932       1.000
    25         4.401       0.996
    26         4.411       0.996
    27         5.564       0.002
    28         5.663       0.001
    29         5.906       0.000
    30         6.617       0.000
    31         6.689       0.000
    32         7.173       0.000
    33         7.213       0.000
    34         9.039       0.000
   ...
    41        12.609       0.000

kpt = [-0.417, -0.333, 0.000], weight = 0.007:
  Band      eig [eV]   occ [0-1]
     0       -59.793       1.000
   ...
    19         0.182       1.000
    20         0.275       1.000
    21         0.412       1.000
    22         0.470       1.000
    23         0.632       1.000
    24         4.051       1.000
    25         4.414       0.996
    26         4.421       0.995
    27         5.412       0.010
    28         5.592       0.002
    29         6.191       0.000
    30         6.569       0.000
    31         6.606       0.000
    32         7.056       0.000
    33         7.117       0.000
    34         9.003       0.000
   ...
    41        12.307       0.000

kpt = [-0.417, -0.250, 0.000], weight = 0.007:
  Band      eig [eV]   occ [0-1]
     0       -59.793       1.000
   ...
    19         0.163       1.000
    20         0.290       1.000
    21         0.411       1.000
    22         0.473       1.000
    23         0.644       1.000
    24         4.053       1.000
    25         4.414       0.996
    26         4.422       0.995
    27         5.408       0.011
    28         5.595       0.002
    29         6.191       0.000
    30         6.566       0.000
    31         6.609       0.000
    32         7.054       0.000
    33         7.117       0.000
    34         9.008       0.000
   ...
    41        12.502       0.000
(only showing first 3 out of 144 k-points)

Gap: 0.867 eV
Transition (v -> c):
  (s=0, k=69, n=26, [-0.00, 0.33, 0.00]) -> (s=0, k=26, n=27, [-0.25, -0.25, 0.00])
# Writing to Conv_V/Conv_V_1.5/gsq-01.gpw (mode='')

---

timing:  # [seconds]
  Total: 327.228  # ━━━━━━━━━━━━━━━━━━━━━━━━━━━━━━━━━━━━━━━━━━━━━━━━━━━━━━━━━
  Init:   14.437  # ━━╸
  SCF:   137.989  # ━━━━━━━━━━━━━━━━━━━━━━━━

Max RSS: 387.352  # MiB
