#  __  _  _
# | _ |_)|_||  |
# |__||  | ||/\| - 24.1.0

User:   s194113@n-62-28-16
Date:   Tue May  7 01:53:45 2024
Arch:   x86_64
Pid:    15007
CWD:    /work3/s194113/10302/10302_NM/NiI2
Python: 3.8.5
gpaw:   /zhome/87/8/147075/venv-name/gpaw/gpaw (10808453a8)
_gpaw:  /zhome/87/8/147075/venv-name/gpaw/
        _gpaw.cpython-38-x86_64-linux-gnu.so (10808453a8)
ase:    /zhome/87/8/147075/venv-name/ase/ase (version 3.23.0b1-c36115a2db)
numpy:  /zhome/87/8/147075/venv-name/lib/python3.8/site-packages/numpy (version 1.24.4)
scipy:  /zhome/87/8/147075/venv-name/lib/python3.8/site-packages/scipy (version 1.10.1)
libxc:  4.3.4
units:  Angstrom and eV
cores: 12
OpenMP: False
OMP_NUM_THREADS: 1

---
input parameters:
  kpts: 
    density: 8.0
    gamma: True
  magmoms: [[1.28782608, 0, 0], [0.19870794, 0, 0], [0.19870794, 0, 0]]
  mixer: 
    backend: 'pulay'
    beta: 0.05
    method: 'sum'
    nmaxold: 5
    weight: 100
  mode: 
    name: 'pw'
    ecut: 800.0
    qspiral: [0.14285714285714285, 0.14285714285714285, 0]
  parallel: 
    kpt: None
    domain: 1
    band: 1
    order: 'kdb'
    stridebands: False
    augment_grids: False
    sl_auto: False
    sl_default: None
    sl_diagonalize: None
    sl_inverse_cholesky: None
    sl_lcao: None
    sl_lrtddft: None
    use_elpa: False
    elpasolver: '2stage'
    buffer_size: None
    gpu: False
  symmetry: 
    point_group: False
    time_reversal: False
  xc: 
    name: 'LDA'

#                        
#                        
#                        
#                        
#                        
#              I         
#                        
#        Ni              
#          I             
#                        
#                        
#                        
#                        
#                        

atoms: [  # symbols, positions [Ang] and initial magnetic moments
  [ Ni, [   0.000000,    0.000000,    7.513573], [ 1.288,  0.000,  0.000]], # 0
  [  I, [   1.984831,    1.145943,    9.027147], [ 0.199,  0.000,  0.000]], # 1
  [  I, [   0.000000,    2.291885,    6.000000], [ 0.199,  0.000,  0.000]]] # 2

cell: [  # Ang
#     x            y            z
  [   3.969662,    0.000000,    0.000000],
  [  -1.984831,    3.437828,    0.000000],
  [   0.000000,    0.000000,   15.027147]]

periodic: [True      , True      , False     ]
lengths:  [  3.969662,   3.969662,  15.027147]  # Ang
angles:   [ 90.000000,  90.000000, 120.000000]

symmetry:
  number of symmetries: 1
  rotations: [
    [[ 1,  0,  0], [ 0,  1,  0], [ 0,  0,  1]]]

bz sampling:
  number of bz points: 225
  number of ibz points: 225
  monkhorst-pack size: [15, 15, 1]
  monkhorst-pack shift: [0, 0, 0]
  points and weights: [
    [[ -0.46666667,  -0.46666667,   0.00000000], 0.00444444],  # 0
    [[ -0.46666667,  -0.40000000,   0.00000000], 0.00444444],  # 1
    [[ -0.46666667,  -0.33333333,   0.00000000], 0.00444444],  # 2
    [[ -0.46666667,  -0.26666667,   0.00000000], 0.00444444],  # 3
    [[ -0.46666667,  -0.20000000,   0.00000000], 0.00444444],  # 4
    [[ -0.46666667,  -0.13333333,   0.00000000], 0.00444444],  # 5
    [[ -0.46666667,  -0.06666667,   0.00000000], 0.00444444],  # 6
    [[ -0.46666667,   0.00000000,   0.00000000], 0.00444444],  # 7
    [[ -0.46666667,   0.06666667,   0.00000000], 0.00444444],  # 8
    [[ -0.46666667,   0.13333333,   0.00000000], 0.00444444],  # 9
    # ...
    [[  0.46666667,   0.46666667,   0.00000000], 0.00444444]]  # 224

plane wave coefficients: 10580
cutoff: 800.0 eV

spin-components: 4  # (non-collinear spins)
bands: 40
valence electrons: 30.0
spin-degeneracy: 1
dtype: complex128

memory:
    wave functions: 3_041_856_000  # bytes  (253_488_000 per core)

parallelization:
    kpt:    12
    domain: 1
    band:   1

density:
  components: 4
  grid points: [ 27  27 100]
  charge: 0.0  # |e|

potential:
  grid points: [ 27  27 100]

species:
  Ni:
    name: Nickel
    id: 1802175e8de9ea26d9f4394ec1a7d564
    Z: 28.0
    valence: 16
    core: 12
    charge: 0.0
    file: /zhome/86/d/1666/PAW/gpaw-setups-0.9.20000/Ni.LDA.gz
    compensation charges: {type: gauss,
                           rc: 0.36,
                           lmax: 2}
    cutoffs: {filter: 2.14,
              core: 1.98}
    valence states:
      #              energy  rcut
      - 4s(2.00)    -5.858   1.164
      - 3p(6.00)   -71.266   1.207
      - 4p(0.00)    -1.338   1.207
      - 3d(8.00)    -9.141   1.138
      -  s          21.353   1.164
      -  d          18.071   1.138
  
    # Using partial waves for Ni as LCAO basis

  I:
    name: Iodine
    id: b559721c0c096a7b4c8fc0e0f4de5cf4
    Z: 53.0
    valence: 7
    core: 46
    charge: 0.0
    file: /zhome/86/d/1666/PAW/gpaw-setups-0.9.20000/I.LDA.gz
    compensation charges: {type: gauss,
                           rc: 0.37,
                           lmax: 2}
    cutoffs: {filter: 2.06,
              core: 2.90}
    valence states:
      #              energy  rcut
      - 5s(2.00)   -17.626   1.164
      - 5p(5.00)    -7.241   1.164
      -  s           9.585   1.164
      -  p          19.970   1.164
      -  d           0.000   1.164
  
    # Using partial waves for I as LCAO basis

Reference energy: -428067.566327  # eV

eigensolver:
  name: 'Davidson'
  niter: 2
  converge_bands: 'occupied'
Density mixing:
  Method: sum
  Backend: pulay
  Linear mixing parameter: 0.05
  old densities: 5
  Damping of long wavelength oscillations: 100
occupation numbers:
  Fermi-Dirac:
    width: 0.1000  # eV
  

poisson solver:
  ecut: 6400.0  # eV

xc functional:
  name: None

convergence criteria:
- Maximum [total energy] change in last 3 cyles: 0.0005 eV / valence electron
- Maximum integral of absolute [dens]ity change: 0.0001 electrons / valence electron
- Maximum integral of absolute [eigenst]ate change: 4e-08 eV^2 / valence electron
maximum number of iterations: 333

#      iter     time        total  log10-change:
#                          energy   eigst   dens
# iter:   1 01:54:56   -13.658226                  +1.7,+0.0,+0.0
# iter:   2 01:55:43   -12.649867   -0.16  -1.32   +1.4,-0.0,-0.0
# iter:   3 01:56:29   -12.251954   -0.61  -1.46   +1.4,-0.0,-0.0
# iter:   4 01:57:16   -12.329451   -1.27  -1.68   +1.4,-0.0,-0.0
# iter:   5 01:58:02   -12.497865   -1.46  -1.66   +1.5,+0.0,+0.0
# iter:   6 01:58:48   -12.337993   -1.68  -1.82   +1.5,+0.0,+0.0
# iter:   7 01:59:34   -12.324822   -1.98  -2.18   +1.5,+0.0,-0.0
# iter:   8 02:00:20   -12.316086   -2.18  -2.34   +1.5,+0.0,-0.0
# iter:   9 02:01:06   -12.317299c  -2.37  -2.76   +1.5,+0.0,-0.0
# iter:  10 02:01:52   -12.319181c  -2.59  -3.01   +1.5,+0.0,-0.0
# iter:  11 02:02:38   -12.316778c  -2.70  -2.86   +1.5,+0.0,-0.0
# iter:  12 02:03:24   -12.317506c  -2.94  -3.05   +1.5,+0.0,+0.0
# iter:  13 02:04:11   -12.317679c  -3.10  -3.38   +1.6,+0.0,-0.0
# iter:  14 02:04:58   -12.317751c  -3.26  -3.88   +1.5,+0.0,-0.0
# iter:  15 02:05:44   -12.317957c  -3.40  -3.95   +1.6,+0.0,-0.0
# iter:  16 02:06:30   -12.318159c  -3.54  -3.95   +1.6,+0.0,+0.0
# iter:  17 02:07:16   -12.318249c  -3.69  -4.15c  +1.6,+0.0,+0.0
# iter:  18 02:08:03   -12.318232c  -3.82  -3.97   +1.6,+0.0,+0.0
# iter:  19 02:08:49   -12.318199c  -3.96  -4.21c  +1.6,+0.0,+0.0
# iter:  20 02:09:35   -12.318237c  -4.10  -4.38c  +1.6,+0.0,-0.0
# iter:  21 02:10:22   -12.318300c  -4.24  -4.53c  +1.6,+0.0,-0.0
# iter:  22 02:11:09   -12.318311c  -4.38  -4.58c  +1.6,+0.0,-0.0
# iter:  23 02:11:56   -12.318315c  -4.52  -4.60c  +1.6,+0.0,-0.0
# iter:  24 02:12:42   -12.318350c  -4.65  -4.63c  +1.6,+0.0,-0.0
# iter:  25 02:13:28   -12.318357c  -4.79  -4.68c  +1.6,+0.0,-0.0
# iter:  26 02:14:14   -12.318353c  -4.93  -4.72c  +1.6,+0.0,-0.0
# iter:  27 02:15:00   -12.318326c  -5.07  -4.78c  +1.6,+0.0,-0.0
# iter:  28 02:15:46   -12.318308c  -5.20  -4.80c  +1.6,+0.0,-0.0
# iter:  29 02:16:32   -12.318304c  -5.34  -4.82c  +1.6,+0.0,-0.0
# iter:  30 02:17:18   -12.318323c  -5.47  -4.86c  +1.6,+0.0,+0.0
# iter:  31 02:18:05   -12.318328c  -5.60  -5.31c  +1.6,+0.0,-0.0
# iter:  32 02:18:52   -12.318334c  -5.74  -5.39c  +1.6,+0.0,-0.0
# iter:  33 02:19:39   -12.318338c  -5.88  -5.42c  +1.6,+0.0,-0.0
# iter:  34 02:20:25   -12.318336c  -6.01  -5.41c  +1.6,+0.0,+0.0
# iter:  35 02:21:12   -12.318336c  -6.15  -5.41c  +1.6,+0.0,-0.0
# iter:  36 02:21:59   -12.318339c  -6.29  -5.45c  +1.6,+0.0,-0.0
# iter:  37 02:22:46   -12.318334c  -6.43  -5.40c  +1.6,+0.0,+0.0
# iter:  38 02:23:33   -12.318340c  -6.57  -5.40c  +1.6,+0.0,-0.0
# iter:  39 02:24:19   -12.318338c  -6.71  -5.42c  +1.6,+0.0,-0.0
# iter:  40 02:25:05   -12.318341c  -6.85  -5.41c  +1.6,+0.0,-0.0
# iter:  41 02:25:52   -12.318342c  -6.98  -5.42c  +1.6,+0.0,-0.0
# iter:  42 02:26:38   -12.318342c  -7.12  -5.40c  +1.6,+0.0,-0.0
# iter:  43 02:27:24   -12.318345c  -7.26  -5.44c  +1.6,+0.0,-0.0
# iter:  44 02:28:11   -12.318346c  -7.40c -5.57c  +1.6,+0.0,-0.0
scf_steps: 44
energies:  # eV
  coulomb:          -7.649687
  zero:              0.067581
  xc:              -14.899715
  external:          0.000000
  kinetic:          10.181555
  spinorbit:         0.000000
  entropy:          -0.036160
  total:           -12.336426
  extrapolated:    -12.318346

dipole moment: [-3.987316, -6.905526, -4.391176]  # |e|*Ang

total magnetic moment: [1.563099, 0.018138, -0.000000]

local magnetic moments: [
  [ 1.131297, -0.007486,  0.000000],  # Ni 0
  [ 0.082662, -0.105042, -0.000000],  # I  1
  [ 0.082633, -0.105066, -0.000000]]  # I  2


Fermi level: -1.184 eV

kpt = [-0.467, -0.467, 0.000], weight = 0.004:
  Band      eig [eV]   occ [0-1]
     0       -64.956       1.000
   ...
    22        -3.074       1.000
    23        -2.941       1.000
    24        -2.850       1.000
    25        -2.284       1.000
    26        -2.148       1.000
    27        -2.115       1.000
    28        -1.738       0.996
    29        -1.642       0.990
    30        -0.787       0.019
    31        -0.726       0.010
    32         1.745       0.000
    33         2.445       0.000
    34         3.912       0.000
    35         4.660       0.000
    36         4.706       0.000
    37         4.813       0.000
   ...
    39         5.558       0.000

kpt = [-0.467, -0.400, 0.000], weight = 0.004:
  Band      eig [eV]   occ [0-1]
     0       -64.956       1.000
   ...
    22        -3.072       1.000
    23        -2.923       1.000
    24        -2.895       1.000
    25        -2.320       1.000
    26        -2.145       1.000
    27        -2.124       1.000
    28        -1.735       0.996
    29        -1.641       0.990
    30        -0.768       0.015
    31        -0.704       0.008
    32         1.584       0.000
    33         2.591       0.000
    34         3.629       0.000
    35         4.472       0.000
    36         4.635       0.000
    37         4.761       0.000
   ...
    39         6.038       0.000

kpt = [-0.467, -0.333, 0.000], weight = 0.004:
  Band      eig [eV]   occ [0-1]
     0       -64.956       1.000
   ...
    22        -3.019       1.000
    23        -2.931       1.000
    24        -2.827       1.000
    25        -2.353       1.000
    26        -2.146       1.000
    27        -2.122       1.000
    28        -1.759       0.997
    29        -1.589       0.983
    30        -0.845       0.033
    31        -0.708       0.008
    32         1.745       0.000
    33         2.574       0.000
    34         3.821       0.000
    35         4.452       0.000
    36         4.659       0.000
    37         4.933       0.000
   ...
    39         5.794       0.000
(only showing first 3 out of 225 k-points)

Gap: 0.293 eV
Transition (v -> c):
  (s=0, k=112, n=29, [0.00, 0.00, 0.00]) -> (s=0, k=176, n=30, [0.27, 0.27, 0.00])
# Writing to Comp/gsq-00-SC.gpw (mode='')

---

timing:  # [seconds]
  Total: 2066.422  # ━━━━━━━━━━━━━━━━━━━━━━━━━━━━━━━━━━━━━━━━━━━━━━━━━━━━━━━━
  Init:    27.832  # ━
  SCF:   2038.005  # ━━━━━━━━━━━━━━━━━━━━━━━━━━━━━━━━━━━━━━━━━━━━━━━━━━━━━━━

Max RSS: 655.559  # MiB
