#  __  _  _
# | _ |_)|_||  |
# |__||  | ||/\| - 24.1.0

User:   s194113@n-62-29-34
Date:   Wed Apr 24 12:44:49 2024
Arch:   x86_64
Pid:    22968
CWD:    /zhome/87/8/147075/10302/10302_NM/VBr2
Python: 3.8.5
gpaw:   /zhome/87/8/147075/venv-name/gpaw/gpaw (10808453a8)
_gpaw:  /zhome/87/8/147075/venv-name/gpaw/
        _gpaw.cpython-38-x86_64-linux-gnu.so (10808453a8)
ase:    /zhome/87/8/147075/venv-name/ase/ase (version 3.23.0b1-c36115a2db)
numpy:  /zhome/87/8/147075/venv-name/lib/python3.8/site-packages/numpy (version 1.24.4)
scipy:  /zhome/87/8/147075/venv-name/lib/python3.8/site-packages/scipy (version 1.10.1)
libxc:  4.3.4
units:  Angstrom and eV
cores: 12
OpenMP: False
OMP_NUM_THREADS: 1

---
input parameters:
  kpts: 
    density: 6.0
    gamma: True
  magmoms: [[2.64162512, 0, 0], [-0.02514574, 0, 0], [-0.02514574, 0, 0]]
  mixer: 
    backend: 'pulay'
    beta: 0.05
    method: 'sum'
    nmaxold: 5
    weight: 100
  mode: 
    name: 'pw'
    ecut: 600
    qspiral: array([0.05, 0.  , 0.  ])
  parallel: 
    kpt: None
    domain: 1
    band: 1
    order: 'kdb'
    stridebands: False
    augment_grids: False
    sl_auto: False
    sl_default: None
    sl_diagonalize: None
    sl_inverse_cholesky: None
    sl_lcao: None
    sl_lrtddft: None
    use_elpa: False
    elpasolver: '2stage'
    buffer_size: None
    gpu: False
  symmetry: 
    point_group: False
    time_reversal: False
  xc: 
    name: 'LDA'

#                        
#                        
#                        
#                        
#              Br        
#                        
#                        
#        V Br            
#                        
#                        
#                        
#                        
#                        

atoms: [  # symbols, positions [Ang] and initial magnetic moments
  [  V, [   0.000000,    0.000000,    7.948555], [ 2.642,  0.000,  0.000]], # 0
  [ Br, [   1.920224,    1.108642,    9.397111], [-0.025,  0.000,  0.000]], # 1
  [ Br, [   0.000000,    2.217284,    6.500000], [-0.025,  0.000,  0.000]]] # 2

cell: [  # Ang
#     x            y            z
  [   3.840448,    0.000000,    0.000000],
  [  -1.920224,    3.325925,    0.000000],
  [   0.000000,    0.000000,   15.897111]]

periodic: [True      , True      , False     ]
lengths:  [  3.840448,   3.840448,  15.897111]  # Ang
angles:   [ 90.000000,  90.000000, 120.000000]

symmetry:
  number of symmetries: 1
  rotations: [
    [[ 1,  0,  0], [ 0,  1,  0], [ 0,  0,  1]]]

bz sampling:
  number of bz points: 144
  number of ibz points: 144
  monkhorst-pack size: [12, 12, 1]
  monkhorst-pack shift: [0.041666666666666664, 0.041666666666666664, 0.0]
  points and weights: [
    [[ -0.41666667,  -0.41666667,   0.00000000], 0.00694444],  # 0
    [[ -0.41666667,  -0.33333333,   0.00000000], 0.00694444],  # 1
    [[ -0.41666667,  -0.25000000,   0.00000000], 0.00694444],  # 2
    [[ -0.41666667,  -0.16666667,   0.00000000], 0.00694444],  # 3
    [[ -0.41666667,  -0.08333333,   0.00000000], 0.00694444],  # 4
    [[ -0.41666667,  -0.00000000,   0.00000000], 0.00694444],  # 5
    [[ -0.41666667,   0.08333333,   0.00000000], 0.00694444],  # 6
    [[ -0.41666667,   0.16666667,   0.00000000], 0.00694444],  # 7
    [[ -0.41666667,   0.25000000,   0.00000000], 0.00694444],  # 8
    [[ -0.41666667,   0.33333333,   0.00000000], 0.00694444],  # 9
    # ...
    [[  0.50000000,   0.50000000,   0.00000000], 0.00694444]]  # 143

plane wave coefficients: 6813
cutoff: 600.0 eV

spin-components: 4  # (non-collinear spins)
bands: 42
valence electrons: 27.0
spin-degeneracy: 1
dtype: complex128

memory:
    wave functions: 1_310_625_792  # bytes  (109_218_816 per core)

parallelization:
    kpt:    12
    domain: 1
    band:   1

density:
  components: 4
  grid points: [24 24 90]
  charge: 0.0  # |e|

potential:
  grid points: [24 24 90]

species:
  V:
    name: Vanadium
    id: 7939ce69e6bb5930668dfcf9bb1979c3
    Z: 23.0
    valence: 13
    core: 10
    charge: 0.0
    file: /zhome/86/d/1666/PAW/gpaw-setups-0.9.20000/V.LDA.gz
    compensation charges: {type: gauss,
                           rc: 0.37,
                           lmax: 2}
    cutoffs: {filter: 2.14,
              core: 0.96}
    valence states:
      #              energy  rcut
      - 3s(2.00)   -69.819   1.254
      - 4s(2.00)    -4.846   1.254
      - 3p(6.00)   -43.961   1.281
      - 4p(0.00)    -1.526   1.281
      - 3d(3.00)    -5.381   1.169
      -  d          21.830   1.169
  
    # Using partial waves for V as LCAO basis

  Br:
    name: Bromine
    id: 10a25bbcb3273ec7d8d7f6fc01d2618d
    Z: 35.0
    valence: 7
    core: 28
    charge: 0.0
    file: /zhome/86/d/1666/PAW/gpaw-setups-0.9.20000/Br.LDA.gz
    compensation charges: {type: gauss,
                           rc: 0.35,
                           lmax: 2}
    cutoffs: {filter: 1.98,
              core: 2.38}
    valence states:
      #              energy  rcut
      - 4s(2.00)   -20.306   1.111
      - 4p(5.00)    -8.003   1.111
      -  s           6.906   1.111
      -  p          19.208   1.111
      -  d           0.000   1.111
  
    # Using partial waves for Br as LCAO basis

Reference energy: -167392.690611  # eV

eigensolver:
  name: 'Davidson'
  niter: 2
  converge_bands: 'occupied'
Density mixing:
  Method: sum
  Backend: pulay
  Linear mixing parameter: 0.05
  old densities: 5
  Damping of long wavelength oscillations: 100
occupation numbers:
  Fermi-Dirac:
    width: 0.1000  # eV
  

poisson solver:
  ecut: 4800.0  # eV

xc functional:
  name: None

convergence criteria:
- Maximum [total energy] change in last 3 cyles: 0.0005 eV / valence electron
- Maximum integral of absolute [dens]ity change: 0.0001 electrons / valence electron
- Maximum integral of absolute [eigenst]ate change: 4e-08 eV^2 / valence electron
maximum number of iterations: 333

#      iter     time        total  log10-change:
#                          energy   eigst   dens
# iter:   1 12:45:23   -15.783292                  +2.6,+0.0,+0.0
# iter:   2 12:45:43   -15.740513   -0.69  -1.39   +2.7,+0.0,+0.0
# iter:   3 12:46:04   -15.593872   -1.15  -1.44   +2.8,+0.0,+0.0
# iter:   4 12:46:24   -15.614074   -1.46  -1.56   +2.9,-0.0,-0.0
# iter:   5 12:46:45   -15.654255   -1.88  -1.68   +3.0,-0.0,-0.0
# iter:   6 12:47:06   -15.643705   -2.46  -2.16   +3.0,-0.0,+0.0
# iter:   7 12:47:26   -15.643883c  -2.46  -2.27   +3.0,-0.0,-0.0
# iter:   8 12:47:47   -15.639483c  -3.32  -2.48   +3.0,-0.0,-0.0
# iter:   9 12:48:07   -15.639640c  -3.91  -2.89   +3.0,-0.0,-0.0
# iter:  10 12:48:28   -15.639510c  -3.80  -2.80   +3.0,-0.0,+0.0
# iter:  11 12:48:48   -15.639542c  -4.38  -3.42   +3.0,-0.0,+0.0
# iter:  12 12:49:09   -15.639539c  -4.82  -3.65   +3.0,-0.0,+0.0
# iter:  13 12:49:29   -15.639510c  -5.02  -3.69   +3.0,-0.0,+0.0
# iter:  14 12:49:49   -15.639520c  -5.31  -3.89   +3.0,-0.0,+0.0
# iter:  15 12:50:10   -15.639506c  -5.51  -3.96   +3.0,-0.0,+0.0
# iter:  16 12:50:30   -15.639506c  -5.83  -4.35c  +3.0,-0.0,+0.0
# iter:  17 12:50:51   -15.639507c  -6.24  -4.37c  +3.0,-0.0,+0.0
# iter:  18 12:51:11   -15.639507c  -6.48  -4.47c  +3.0,-0.0,+0.0
# iter:  19 12:51:31   -15.639508c  -6.74  -4.62c  +3.0,-0.0,+0.0
# iter:  20 12:51:51   -15.639509c  -7.04  -4.68c  +3.0,-0.0,+0.0
# iter:  21 12:52:12   -15.639510c  -7.22  -4.70c  +3.0,-0.0,+0.0
# iter:  22 12:52:32   -15.639512c  -7.20  -4.80c  +3.0,-0.0,+0.0
# iter:  23 12:52:53   -15.639511c  -7.83c -4.79c  +3.0,-0.0,+0.0
scf_steps: 23
energies:  # eV
  coulomb:          -6.206647
  zero:              0.038001
  xc:              -16.701183
  external:          0.000000
  kinetic:           7.234651
  spinorbit:         0.000000
  entropy:          -0.008666
  total:           -15.643844
  extrapolated:    -15.639511

dipole moment: [-5.116712, -8.915839, -10.858516]  # |e|*Ang

total magnetic moment: [2.992309, -0.000440, 0.000000]

local magnetic moments: [
  [ 2.630346, -0.000020,  0.000000],  # V  0
  [-0.025913,  0.005496, -0.000000],  # Br 1
  [-0.026343,  0.002782, -0.000000]]  # Br 2


Fermi level: -0.767 eV

kpt = [-0.417, -0.417, 0.000], weight = 0.007:
  Band      eig [eV]   occ [0-1]
     0       -65.521       1.000
   ...
    19        -5.324       1.000
    20        -5.237       1.000
    21        -5.221       1.000
    22        -5.098       1.000
    23        -4.981       1.000
    24        -1.820       1.000
    25        -1.332       0.996
    26        -1.328       0.996
    27        -0.135       0.002
    28         0.076       0.000
    29         0.204       0.000
    30         0.943       0.000
    31         0.998       0.000
    32         1.413       0.000
    33         1.609       0.000
    34         3.210       0.000
   ...
    41         5.702       0.000

kpt = [-0.417, -0.333, 0.000], weight = 0.007:
  Band      eig [eV]   occ [0-1]
     0       -65.521       1.000
   ...
    19        -5.459       1.000
    20        -5.336       1.000
    21        -5.150       1.000
    22        -5.130       1.000
    23        -4.936       1.000
    24        -1.676       1.000
    25        -1.359       0.997
    26        -1.320       0.996
    27        -0.194       0.003
    28         0.011       0.000
    29         0.503       0.000
    30         0.854       0.000
    31         0.950       0.000
    32         1.339       0.000
    33         1.509       0.000
    34         3.678       0.000
   ...
    41         5.977       0.000

kpt = [-0.417, -0.250, 0.000], weight = 0.007:
  Band      eig [eV]   occ [0-1]
     0       -65.521       1.000
   ...
    19        -5.464       1.000
    20        -5.341       1.000
    21        -5.161       1.000
    22        -5.120       1.000
    23        -4.930       1.000
    24        -1.673       1.000
    25        -1.359       0.997
    26        -1.320       0.996
    27        -0.199       0.003
    28         0.014       0.000
    29         0.503       0.000
    30         0.852       0.000
    31         0.950       0.000
    32         1.337       0.000
    33         1.510       0.000
    34         3.708       0.000
   ...
    41         6.019       0.000
(only showing first 3 out of 144 k-points)

Gap: 0.887 eV
Transition (v -> c):
  (s=0, k=111, n=26, [0.33, -0.17, 0.00]) -> (s=0, k=98, n=27, [0.25, -0.25, 0.00])
# Writing to Conv_V/Conv_V_6.5/gsq-01.gpw (mode='')

---

timing:  # [seconds]
  Total: 484.381  # ━━━━━━━━━━━━━━━━━━━━━━━━━━━━━━━━━━━━━━━━━━━━━━━━━━━━━━━━━
  Init:   14.289  # ━╸
  SCF:   469.533  # ━━━━━━━━━━━━━━━━━━━━━━━━━━━━━━━━━━━━━━━━━━━━━━━━━━━━━━━╸

Max RSS: 436.938  # MiB
