#  __  _  _
# | _ |_)|_||  |
# |__||  | ||/\| - 24.1.0

User:   s194113@n-62-28-19
Date:   Wed Apr 24 12:35:09 2024
Arch:   x86_64
Pid:    26343
CWD:    /zhome/87/8/147075/10302/10302_NM/VBr2
Python: 3.8.5
gpaw:   /zhome/87/8/147075/venv-name/gpaw/gpaw (10808453a8)
_gpaw:  /zhome/87/8/147075/venv-name/gpaw/
        _gpaw.cpython-38-x86_64-linux-gnu.so (10808453a8)
ase:    /zhome/87/8/147075/venv-name/ase/ase (version 3.23.0b1-c36115a2db)
numpy:  /zhome/87/8/147075/venv-name/lib/python3.8/site-packages/numpy (version 1.24.4)
scipy:  /zhome/87/8/147075/venv-name/lib/python3.8/site-packages/scipy (version 1.10.1)
libxc:  4.3.4
units:  Angstrom and eV
cores: 12
OpenMP: False
OMP_NUM_THREADS: 1

---
input parameters:
  kpts: 
    density: 6.0
    gamma: True
  magmoms: [[2.64162512, 0, 0], [-0.02514574, 0, 0], [-0.02514574, 0, 0]]
  mixer: 
    backend: 'pulay'
    beta: 0.05
    method: 'sum'
    nmaxold: 5
    weight: 100
  mode: 
    name: 'pw'
    ecut: 600
    qspiral: array([0., 0., 0.])
  parallel: 
    kpt: None
    domain: 1
    band: 1
    order: 'kdb'
    stridebands: False
    augment_grids: False
    sl_auto: False
    sl_default: None
    sl_diagonalize: None
    sl_inverse_cholesky: None
    sl_lcao: None
    sl_lrtddft: None
    use_elpa: False
    elpasolver: '2stage'
    buffer_size: None
    gpu: False
  symmetry: 
    point_group: False
    time_reversal: False
  xc: 
    name: 'LDA'

#                        
#                        
#                        
#                        
#              Br        
#                        
#                        
#        V Br            
#                        
#                        
#                        
#                        
#                        

atoms: [  # symbols, positions [Ang] and initial magnetic moments
  [  V, [   0.000000,    0.000000,    3.448555], [ 2.642,  0.000,  0.000]], # 0
  [ Br, [   1.920224,    1.108642,    4.897111], [-0.025,  0.000,  0.000]], # 1
  [ Br, [   0.000000,    2.217284,    2.000000], [-0.025,  0.000,  0.000]]] # 2

cell: [  # Ang
#     x            y            z
  [   3.840448,    0.000000,    0.000000],
  [  -1.920224,    3.325925,    0.000000],
  [   0.000000,    0.000000,    6.897111]]

periodic: [True      , True      , False     ]
lengths:  [  3.840448,   3.840448,   6.897111]  # Ang
angles:   [ 90.000000,  90.000000, 120.000000]

symmetry:
  number of symmetries: 1
  rotations: [
    [[ 1,  0,  0], [ 0,  1,  0], [ 0,  0,  1]]]

bz sampling:
  number of bz points: 144
  number of ibz points: 144
  monkhorst-pack size: [12, 12, 1]
  monkhorst-pack shift: [0.041666666666666664, 0.041666666666666664, 0.0]
  points and weights: [
    [[ -0.41666667,  -0.41666667,   0.00000000], 0.00694444],  # 0
    [[ -0.41666667,  -0.33333333,   0.00000000], 0.00694444],  # 1
    [[ -0.41666667,  -0.25000000,   0.00000000], 0.00694444],  # 2
    [[ -0.41666667,  -0.16666667,   0.00000000], 0.00694444],  # 3
    [[ -0.41666667,  -0.08333333,   0.00000000], 0.00694444],  # 4
    [[ -0.41666667,  -0.00000000,   0.00000000], 0.00694444],  # 5
    [[ -0.41666667,   0.08333333,   0.00000000], 0.00694444],  # 6
    [[ -0.41666667,   0.16666667,   0.00000000], 0.00694444],  # 7
    [[ -0.41666667,   0.25000000,   0.00000000], 0.00694444],  # 8
    [[ -0.41666667,   0.33333333,   0.00000000], 0.00694444],  # 9
    # ...
    [[  0.50000000,   0.50000000,   0.00000000], 0.00694444]]  # 143

plane wave coefficients: 2963
cutoff: 600.0 eV

spin-components: 4  # (non-collinear spins)
bands: 42
valence electrons: 27.0
spin-degeneracy: 1
dtype: complex128

memory:
    wave functions: 567_060_480  # bytes  (47_255_040 per core)

parallelization:
    kpt:    12
    domain: 1
    band:   1

density:
  components: 4
  grid points: [24 24 40]
  charge: 0.0  # |e|

potential:
  grid points: [24 24 40]

species:
  V:
    name: Vanadium
    id: 7939ce69e6bb5930668dfcf9bb1979c3
    Z: 23.0
    valence: 13
    core: 10
    charge: 0.0
    file: /zhome/86/d/1666/PAW/gpaw-setups-0.9.20000/V.LDA.gz
    compensation charges: {type: gauss,
                           rc: 0.37,
                           lmax: 2}
    cutoffs: {filter: 2.14,
              core: 0.96}
    valence states:
      #              energy  rcut
      - 3s(2.00)   -69.819   1.254
      - 4s(2.00)    -4.846   1.254
      - 3p(6.00)   -43.961   1.281
      - 4p(0.00)    -1.526   1.281
      - 3d(3.00)    -5.381   1.169
      -  d          21.830   1.169
  
    # Using partial waves for V as LCAO basis

  Br:
    name: Bromine
    id: 10a25bbcb3273ec7d8d7f6fc01d2618d
    Z: 35.0
    valence: 7
    core: 28
    charge: 0.0
    file: /zhome/86/d/1666/PAW/gpaw-setups-0.9.20000/Br.LDA.gz
    compensation charges: {type: gauss,
                           rc: 0.35,
                           lmax: 2}
    cutoffs: {filter: 1.98,
              core: 2.38}
    valence states:
      #              energy  rcut
      - 4s(2.00)   -20.306   1.111
      - 4p(5.00)    -8.003   1.111
      -  s           6.906   1.111
      -  p          19.208   1.111
      -  d           0.000   1.111
  
    # Using partial waves for Br as LCAO basis

Reference energy: -167392.690611  # eV

eigensolver:
  name: 'Davidson'
  niter: 2
  converge_bands: 'occupied'
Density mixing:
  Method: sum
  Backend: pulay
  Linear mixing parameter: 0.05
  old densities: 5
  Damping of long wavelength oscillations: 100
occupation numbers:
  Fermi-Dirac:
    width: 0.1000  # eV
  

poisson solver:
  ecut: 4800.0  # eV

xc functional:
  name: None

convergence criteria:
- Maximum [total energy] change in last 3 cyles: 0.0005 eV / valence electron
- Maximum integral of absolute [dens]ity change: 0.0001 electrons / valence electron
- Maximum integral of absolute [eigenst]ate change: 4e-08 eV^2 / valence electron
maximum number of iterations: 333

#      iter     time        total  log10-change:
#                          energy   eigst   dens
# iter:   1 12:35:32   -15.834660                  +2.6,+0.0,+0.0
# iter:   2 12:35:42   -15.788069   -0.76  -1.40   +2.7,+0.0,+0.0
# iter:   3 12:35:52   -15.642565   -1.25  -1.44   +2.8,+0.0,+0.0
# iter:   4 12:36:01   -15.663598   -1.66  -1.57   +2.9,-0.0,-0.0
# iter:   5 12:36:11   -15.702036   -2.34  -1.69   +3.0,+0.0,+0.0
# iter:   6 12:36:21   -15.692699   -2.87  -2.19   +3.0,+0.0,-0.0
# iter:   7 12:36:30   -15.691474c  -2.71  -2.30   +3.0,+0.0,-0.0
# iter:   8 12:36:40   -15.689438c  -3.97  -2.59   +3.0,+0.0,-0.0
# iter:   9 12:36:50   -15.689466c  -5.36  -2.91   +3.0,+0.0,-0.0
# iter:  10 12:37:00   -15.689694c  -4.18  -2.94   +3.0,+0.0,+0.0
# iter:  11 12:37:09   -15.689489c  -4.56  -3.19   +3.0,+0.0,+0.0
# iter:  12 12:37:19   -15.689490c  -6.16  -3.61   +3.0,+0.0,+0.0
# iter:  13 12:37:29   -15.689459c  -6.07  -3.66   +3.0,+0.0,+0.0
# iter:  14 12:37:38   -15.689441c  -6.00  -3.85   +3.0,+0.0,+0.0
# iter:  15 12:37:48   -15.689447c  -7.16  -4.05c  +3.0,+0.0,+0.0
# iter:  16 12:37:58   -15.689449c  -7.35  -4.09c  +3.0,-0.0,-0.0
# iter:  17 12:38:08   -15.689443c  -6.53  -4.22c  +3.0,-0.0,-0.0
# iter:  18 12:38:17   -15.689441c  -6.79  -4.59c  +3.0,-0.0,-0.0
# iter:  19 12:38:27   -15.689441c  -7.41c -4.87c  +3.0,-0.0,+0.0
scf_steps: 19
energies:  # eV
  coulomb:          -5.795521
  zero:              0.038085
  xc:              -16.687180
  external:          0.000000
  kinetic:           6.759451
  spinorbit:         0.000000
  entropy:          -0.008551
  total:           -15.693717
  extrapolated:    -15.689441

dipole moment: [-5.167553, -8.949340, -4.658786]  # |e|*Ang

total magnetic moment: [2.998999, -0.000000, 0.000000]

local magnetic moments: [
  [ 2.633654,  0.000000,  0.000000],  # V  0
  [-0.026269,  0.000000,  0.000000],  # Br 1
  [-0.026269,  0.000000,  0.000000]]  # Br 2


Fermi level: 3.657 eV

kpt = [-0.417, -0.417, 0.000], weight = 0.007:
  Band      eig [eV]   occ [0-1]
     0       -61.096       1.000
   ...
    19        -0.921       1.000
    20        -0.868       1.000
    21        -0.829       1.000
    22        -0.805       1.000
    23        -0.598       1.000
    24         2.620       1.000
    25         3.092       0.996
    26         3.099       0.996
    27         4.258       0.002
    28         4.463       0.000
    29         4.622       0.000
    30         5.333       0.000
    31         5.412       0.000
    32         5.839       0.000
    33         5.984       0.000
    34         7.676       0.000
   ...
    41        10.706       0.000

kpt = [-0.417, -0.333, 0.000], weight = 0.007:
  Band      eig [eV]   occ [0-1]
     0       -61.096       1.000
   ...
    19        -1.005       1.000
    20        -1.004       1.000
    21        -0.824       1.000
    22        -0.765       1.000
    23        -0.566       1.000
    24         2.750       1.000
    25         3.084       0.997
    26         3.105       0.996
    27         4.167       0.006
    28         4.387       0.001
    29         4.920       0.000
    30         5.284       0.000
    31         5.331       0.000
    32         5.749       0.000
    33         5.881       0.000
    34         7.879       0.000
   ...
    41        10.495       0.000

kpt = [-0.417, -0.250, 0.000], weight = 0.007:
  Band      eig [eV]   occ [0-1]
     0       -61.096       1.000
   ...
    19        -1.005       1.000
    20        -1.004       1.000
    21        -0.824       1.000
    22        -0.765       1.000
    23        -0.566       1.000
    24         2.750       1.000
    25         3.084       0.997
    26         3.105       0.996
    27         4.167       0.006
    28         4.387       0.001
    29         4.920       0.000
    30         5.284       0.000
    31         5.331       0.000
    32         5.749       0.000
    33         5.881       0.000
    34         7.879       0.000
   ...
    41        10.495       0.000
(only showing first 3 out of 144 k-points)

Gap: 0.915 eV
Transition (v -> c):
  (s=0, k=113, n=26, [0.33, -0.00, 0.00]) -> (s=0, k=35, n=27, [-0.25, 0.50, 0.00])
# Writing to Conv_V/Conv_V_2.0/gsq-00.gpw (mode='')

---

timing:  # [seconds]
  Total: 198.847  # ━━━━━━━━━━━━━━━━━━━━━━━━━━━━━━━━━━━━━━━━━━━━━━━━━━━━━━━━━
  Init:   13.879  # ━━━━
  SCF:   184.015  # ━━━━━━━━━━━━━━━━━━━━━━━━━━━━━━━━━━━━━━━━━━━━━━━━━━━━╸

Max RSS: 276.648  # MiB
