#  __  _  _
# | _ |_)|_||  |
# |__||  | ||/\| - 24.1.0

User:   s194113@n-62-29-13
Date:   Tue May  7 02:13:09 2024
Arch:   x86_64
Pid:    24235
CWD:    /work3/s194113/10302/10302_NM/VBr2_Supercell
Python: 3.8.5
gpaw:   /zhome/87/8/147075/venv-name/gpaw/gpaw (10808453a8)
_gpaw:  /zhome/87/8/147075/venv-name/gpaw/
        _gpaw.cpython-38-x86_64-linux-gnu.so (10808453a8)
ase:    /zhome/87/8/147075/venv-name/ase/ase (version 3.23.0b1-c36115a2db)
numpy:  /zhome/87/8/147075/venv-name/lib/python3.8/site-packages/numpy (version 1.24.4)
scipy:  /zhome/87/8/147075/venv-name/lib/python3.8/site-packages/scipy (version 1.10.1)
libxc:  4.3.4
units:  Angstrom and eV
cores: 12
OpenMP: False
OMP_NUM_THREADS: 1

---
input parameters:
  kpts: 
    density: 6.0
    gamma: True
  magmoms: [[2.525535, -0.0, -0.0], [0, 0, 0], [0, 0, 0], [2.525535, -0.0, -0.0], [0, 0, 0], [0, 0, 0], [2.525535, -0.0, -0.0], [0, 0, 0], [0, 0, 0]]
  mixer: 
    backend: 'pulay'
    beta: 0.05
    method: 'sum'
    nmaxold: 5
    weight: 100
  mode: 
    name: 'pw'
    ecut: 600.0
  parallel: 
    kpt: None
    domain: 1
    band: 1
    order: 'kdb'
    stridebands: False
    augment_grids: False
    sl_auto: False
    sl_default: None
    sl_diagonalize: None
    sl_inverse_cholesky: None
    sl_lcao: None
    sl_lrtddft: None
    use_elpa: False
    elpasolver: '2stage'
    buffer_size: None
    gpu: False
  symmetry: 
    point_group: False
    time_reversal: False
  xc: 
    name: 'LDA'

#                               
#                               
#                               
#                               
#                               
#           Br       BrV        
#                               
#              Br               
#                Br             
#                               
#        V Br       Br          
#                               
#                               
#                               
#                               
#                               

atoms: [  # symbols, positions [Ang] and initial magnetic moments
  [  V, [   0.000000,    0.000000,    7.448555], [ 2.526, -0.000, -0.000]], # 0
  [ Br, [   1.920224,    1.108642,    8.897111], [ 0.000,  0.000,  0.000]], # 1
  [ Br, [   0.000000,    2.217284,    6.000000], [ 0.000,  0.000,  0.000]], # 2
  [  V, [   1.920224,    3.325925,    7.448555], [ 2.526, -0.000, -0.000]], # 3
  [ Br, [   3.840448,    4.434567,    8.897111], [ 0.000,  0.000,  0.000]], # 4
  [ Br, [   1.920224,    5.543209,    6.000000], [ 0.000,  0.000,  0.000]], # 5
  [  V, [   3.840448,    6.651851,    7.448555], [ 2.526, -0.000, -0.000]], # 6
  [ Br, [  -0.000000,    4.434567,    8.897111], [ 0.000,  0.000,  0.000]], # 7
  [ Br, [   3.840448,    2.217284,    6.000000], [ 0.000,  0.000,  0.000]]] # 8

cell: [  # Ang
#     x            y            z
  [   5.760672,    3.325925,    0.000000],
  [   0.000000,    6.651851,    0.000000],
  [   0.000000,    0.000000,   14.897111]]

periodic: [True      , True      , False     ]
lengths:  [  6.651851,   6.651851,  14.897111]  # Ang
angles:   [ 90.000000,  90.000000,  60.000000]

symmetry:
  number of symmetries: 1
  rotations: [
    [[ 1,  0,  0], [ 0,  1,  0], [ 0,  0,  1]]]

bz sampling:
  number of bz points: 49
  number of ibz points: 49
  monkhorst-pack size: [7, 7, 1]
  monkhorst-pack shift: [0, 0, 0]
  points and weights: [
    [[ -0.42857143,  -0.42857143,   0.00000000], 0.02040816],  # 0
    [[ -0.42857143,  -0.28571429,   0.00000000], 0.02040816],  # 1
    [[ -0.42857143,  -0.14285714,   0.00000000], 0.02040816],  # 2
    [[ -0.42857143,   0.00000000,   0.00000000], 0.02040816],  # 3
    [[ -0.42857143,   0.14285714,   0.00000000], 0.02040816],  # 4
    [[ -0.42857143,   0.28571429,   0.00000000], 0.02040816],  # 5
    [[ -0.42857143,   0.42857143,   0.00000000], 0.02040816],  # 6
    [[ -0.28571429,  -0.42857143,   0.00000000], 0.02040816],  # 7
    [[ -0.28571429,  -0.28571429,   0.00000000], 0.02040816],  # 8
    [[ -0.28571429,  -0.14285714,   0.00000000], 0.02040816],  # 9
    # ...
    [[  0.42857143,   0.42857143,   0.00000000], 0.02040816]]  # 48

plane wave coefficients: 19085
cutoff: 600.0 eV

spin-components: 4  # (non-collinear spins)
bands: 116
valence electrons: 81.0
spin-degeneracy: 1
dtype: complex128

memory:
    wave functions: 3_463_329_408  # bytes  (288_610_784 per core)

parallelization:
    kpt:    12
    domain: 1
    band:   1

density:
  components: 4
  grid points: [40 40 90]
  charge: 0.0  # |e|

potential:
  grid points: [40 40 90]

species:
  V:
    name: Vanadium
    id: 7939ce69e6bb5930668dfcf9bb1979c3
    Z: 23.0
    valence: 13
    core: 10
    charge: 0.0
    file: /zhome/86/d/1666/PAW/gpaw-setups-0.9.20000/V.LDA.gz
    compensation charges: {type: gauss,
                           rc: 0.37,
                           lmax: 2}
    cutoffs: {filter: 2.14,
              core: 0.96}
    valence states:
      #              energy  rcut
      - 3s(2.00)   -69.819   1.254
      - 4s(2.00)    -4.846   1.254
      - 3p(6.00)   -43.961   1.281
      - 4p(0.00)    -1.526   1.281
      - 3d(3.00)    -5.381   1.169
      -  d          21.830   1.169
  
    # Using partial waves for V as LCAO basis

  Br:
    name: Bromine
    id: 10a25bbcb3273ec7d8d7f6fc01d2618d
    Z: 35.0
    valence: 7
    core: 28
    charge: 0.0
    file: /zhome/86/d/1666/PAW/gpaw-setups-0.9.20000/Br.LDA.gz
    compensation charges: {type: gauss,
                           rc: 0.35,
                           lmax: 2}
    cutoffs: {filter: 1.98,
              core: 2.38}
    valence states:
      #              energy  rcut
      - 4s(2.00)   -20.306   1.111
      - 4p(5.00)    -8.003   1.111
      -  s           6.906   1.111
      -  p          19.208   1.111
      -  d           0.000   1.111
  
    # Using partial waves for Br as LCAO basis

Reference energy: -502178.071834  # eV

eigensolver:
  name: 'Davidson'
  niter: 2
  converge_bands: 'occupied'
Density mixing:
  Method: sum
  Backend: pulay
  Linear mixing parameter: 0.05
  old densities: 5
  Damping of long wavelength oscillations: 100
occupation numbers:
  Fermi-Dirac:
    width: 0.1000  # eV
  

poisson solver:
  ecut: 4800.0  # eV

xc functional:
  name: None

convergence criteria:
- Maximum [total energy] change in last 3 cyles: 0.0005 eV / valence electron
- Maximum integral of absolute [dens]ity change: 0.0001 electrons / valence electron
- Maximum integral of absolute [eigenst]ate change: 4e-08 eV^2 / valence electron
maximum number of iterations: 333

#      iter     time        total  log10-change:
#                          energy   eigst   dens
# iter:   1 02:15:07   -47.281376                  +7.6,+0.0,+0.0
# iter:   2 02:16:01   -47.184738   -0.65  -1.40   +8.0,-0.0,+0.0
# iter:   3 02:16:57   -46.751970   -1.05  -1.44   +8.3,-0.0,+0.0
# iter:   4 02:17:52   -46.818230   -1.36  -1.56   +8.6,+0.0,+0.0
# iter:   5 02:18:47   -46.953103   -1.66  -1.67   +9.0,+0.0,+0.0
# iter:   6 02:19:43   -46.929372   -2.44  -2.18   +9.0,+0.0,+0.0
# iter:   7 02:20:39   -46.940087c  -2.22  -2.25   +9.0,+0.0,+0.0
# iter:   8 02:21:34   -46.915047c  -3.09  -2.34   +9.0,+0.0,+0.0
# iter:   9 02:22:28   -46.915309c  -3.50  -2.86   +9.0,+0.0,+0.0
# iter:  10 02:23:24   -46.915034c  -3.65  -2.76   +9.0,+0.0,+0.0
# iter:  11 02:24:18   -46.915186c  -4.15  -3.40   +9.0,+0.0,+0.0
# iter:  12 02:25:13   -46.915155c  -4.56  -3.62   +9.0,+0.0,-0.0
# iter:  13 02:26:08   -46.915077c  -4.74  -3.67   +9.0,+0.0,+0.0
# iter:  14 02:27:03   -46.915102c  -5.06  -3.91   +9.0,+0.0,-0.0
# iter:  15 02:27:58   -46.915090c  -5.32  -3.98   +9.0,+0.0,-0.0
# iter:  16 02:28:53   -46.915076c  -5.57  -4.04c  +9.0,+0.0,-0.0
# iter:  17 02:29:47   -46.915075c  -5.86  -4.14c  +9.0,-0.0,+0.0
# iter:  18 02:30:43   -46.915077c  -6.12  -4.23c  +9.0,-0.0,+0.0
# iter:  19 02:31:38   -46.915081c  -6.38  -4.26c  +9.0,+0.0,-0.0
# iter:  20 02:32:33   -46.915091c  -6.37  -4.30c  +9.0,-0.0,+0.0
# iter:  21 02:33:28   -46.915090c  -6.82  -4.88c  +9.0,+0.0,-0.0
# iter:  22 02:34:23   -46.915090c  -7.15  -5.16c  +9.0,+0.0,-0.0
# iter:  23 02:35:19   -46.915090c  -7.39  -5.20c  +9.0,+0.0,-0.0
# iter:  24 02:36:15   -46.915091c  -7.62c -5.19c  +9.0,+0.0,-0.0
scf_steps: 24
energies:  # eV
  coulomb:         -18.695789
  zero:              0.115939
  xc:              -50.127410
  external:          0.000000
  kinetic:          21.805418
  spinorbit:         0.000000
  entropy:          -0.026497
  total:           -46.928339
  extrapolated:    -46.915091

dipole moment: [-19.619276, -33.981631, -30.647112]  # |e|*Ang

total magnetic moment: [8.996924, 0.000000, -0.000000]

local magnetic moments: [
  [ 2.632833,  0.000000, -0.000000],  # V  0
  [-0.026524, -0.000000, -0.000000],  # Br 1
  [-0.026524,  0.000000,  0.000000],  # Br 2
  [ 2.632826,  0.000000,  0.000000],  # V  3
  [-0.026524, -0.000000,  0.000000],  # Br 4
  [-0.026524,  0.000000,  0.000000],  # Br 5
  [ 2.632826, -0.000000, -0.000000],  # V  6
  [-0.026524, -0.000000, -0.000000],  # Br 7
  [-0.026524,  0.000000, -0.000000]]  # Br 8


Fermi level: -0.537 eV

kpt = [-0.429, -0.429, 0.000], weight = 0.020:
  Band      eig [eV]   occ [0-1]
     0       -65.290       1.000
   ...
    73        -1.514       1.000
    74        -1.485       1.000
    75        -1.394       1.000
    76        -1.293       0.999
    77        -1.107       0.997
    78        -1.058       0.995
    79        -1.029       0.993
    80        -1.028       0.993
    81        -0.070       0.009
    82        -0.058       0.008
    83         0.005       0.004
    84         0.037       0.003
    85         0.131       0.001
    86         0.272       0.000
    87         0.383       0.000
    88         0.615       0.000
   ...
   115         4.723       0.000

kpt = [-0.429, -0.286, 0.000], weight = 0.020:
  Band      eig [eV]   occ [0-1]
     0       -65.290       1.000
   ...
    73        -1.662       1.000
    74        -1.587       1.000
    75        -1.315       1.000
    76        -1.183       0.998
    77        -1.118       0.997
    78        -1.060       0.995
    79        -1.058       0.995
    80        -1.049       0.994
    81        -0.150       0.020
    82        -0.002       0.005
    83         0.153       0.001
    84         0.164       0.001
    85         0.183       0.001
    86         0.238       0.000
    87         0.328       0.000
    88         0.360       0.000
   ...
   115         4.626       0.000

kpt = [-0.429, -0.143, 0.000], weight = 0.020:
  Band      eig [eV]   occ [0-1]
     0       -65.290       1.000
   ...
    73        -1.661       1.000
    74        -1.587       1.000
    75        -1.317       1.000
    76        -1.184       0.998
    77        -1.118       0.997
    78        -1.060       0.995
    79        -1.059       0.995
    80        -1.046       0.994
    81        -0.150       0.020
    82        -0.001       0.005
    83         0.153       0.001
    84         0.160       0.001
    85         0.184       0.001
    86         0.235       0.000
    87         0.332       0.000
    88         0.360       0.000
   ...
   115         4.627       0.000
(only showing first 3 out of 49 k-points)

Gap: 0.865 eV
Transition (v -> c):
  (s=0, k=44, n=80, [0.43, -0.14, 0.00]) -> (s=0, k=29, n=81, [0.14, -0.29, 0.00])
# Writing to SC/gsq-sc-f.gpw (mode='')

---

timing:  # [seconds]
  Total: 1385.466  # ━━━━━━━━━━━━━━━━━━━━━━━━━━━━━━━━━━━━━━━━━━━━━━━━━━━━━━━━
  Init:    66.678  # ━━╸
  SCF:   1318.517  # ━━━━━━━━━━━━━━━━━━━━━━━━━━━━━━━━━━━━━━━━━━━━━━━━━━━━━╸

Max RSS: 879.168  # MiB
