#  __  _  _
# | _ |_)|_||  |
# |__||  | ||/\| - 24.1.0

User:   s194099@n-62-29-14
Date:   Wed Apr 17 15:22:48 2024
Arch:   x86_64
Pid:    32167
CWD:    /zhome/84/5/147090/10302_NM/NiI2
Python: 3.8.5
gpaw:   /zhome/84/5/147090/venv1/gpaw/gpaw (10808453a8)
_gpaw:  /zhome/84/5/147090/venv1/gpaw/
        _gpaw.cpython-38-x86_64-linux-gnu.so (10808453a8)
ase:    /zhome/84/5/147090/venv1/ase/ase (version 3.23.0b1-c36115a2db)
numpy:  /zhome/84/5/147090/venv1/lib/python3.8/site-packages/numpy (version 1.24.4)
scipy:  /zhome/84/5/147090/venv1/lib/python3.8/site-packages/scipy (version 1.10.1)
libxc:  4.3.4
units:  Angstrom and eV
cores: 12
OpenMP: False
OMP_NUM_THREADS: 1

---
input parameters:
  kpts: 
    density: 6.0
    gamma: True
  magmoms: [[1, 0, 0], [0, 0, 0], [0, 0, 0]]
  mixer: 
    backend: 'pulay'
    beta: 0.05
    method: 'sum'
    nmaxold: 5
    weight: 100
  mode: 
    name: 'pw'
    ecut: 600
    qspiral: array([0.36111111, 0.27777778, 0.        ])
  parallel: 
    kpt: None
    domain: 1
    band: 1
    order: 'kdb'
    stridebands: False
    augment_grids: False
    sl_auto: False
    sl_default: None
    sl_diagonalize: None
    sl_inverse_cholesky: None
    sl_lcao: None
    sl_lrtddft: None
    use_elpa: False
    elpasolver: '2stage'
    buffer_size: None
    gpu: False
  symmetry: 
    point_group: False
    time_reversal: False
  xc: 
    name: 'LDA'

#                        
#                        
#                        
#                        
#                        
#              I         
#                        
#        Ni              
#          I             
#                        
#                        
#                        
#                        
#                        

atoms: [  # symbols, positions [Ang] and initial magnetic moments
  [ Ni, [   0.000000,    0.000000,    5.513573], [ 1.000,  0.000,  0.000]], # 0
  [  I, [   1.984831,    1.145943,    7.027147], [ 0.000,  0.000,  0.000]], # 1
  [  I, [  -0.000000,    2.291886,    4.000000], [ 0.000,  0.000,  0.000]]] # 2

cell: [  # Ang
#     x            y            z
  [   3.969662,    0.000000,    0.000000],
  [  -1.984831,    3.437828,    0.000000],
  [   0.000000,   -0.000000,   11.027147]]

periodic: [True      , True      , False     ]
lengths:  [  3.969662,   3.969662,  11.027147]  # Ang
angles:   [ 90.000000,  90.000000, 120.000000]

symmetry:
  number of symmetries: 1
  rotations: [
    [[ 1,  0,  0], [ 0,  1,  0], [ 0,  0,  1]]]

bz sampling:
  number of bz points: 121
  number of ibz points: 121
  monkhorst-pack size: [11, 11, 1]
  monkhorst-pack shift: [0, 0, 0]
  points and weights: [
    [[ -0.45454545,  -0.45454545,   0.00000000], 0.00826446],  # 0
    [[ -0.45454545,  -0.36363636,   0.00000000], 0.00826446],  # 1
    [[ -0.45454545,  -0.27272727,   0.00000000], 0.00826446],  # 2
    [[ -0.45454545,  -0.18181818,   0.00000000], 0.00826446],  # 3
    [[ -0.45454545,  -0.09090909,   0.00000000], 0.00826446],  # 4
    [[ -0.45454545,   0.00000000,   0.00000000], 0.00826446],  # 5
    [[ -0.45454545,   0.09090909,   0.00000000], 0.00826446],  # 6
    [[ -0.45454545,   0.18181818,   0.00000000], 0.00826446],  # 7
    [[ -0.45454545,   0.27272727,   0.00000000], 0.00826446],  # 8
    [[ -0.45454545,   0.36363636,   0.00000000], 0.00826446],  # 9
    # ...
    [[  0.45454545,   0.45454545,   0.00000000], 0.00826446]]  # 120

plane wave coefficients: 5038
cutoff: 600.0 eV

spin-components: 4  # (non-collinear spins)
bands: 40
valence electrons: 30.0
spin-degeneracy: 1
dtype: complex128

memory:
    wave functions: 778_736_640  # bytes  (64_894_720 per core)

parallelization:
    kpt:    12
    domain: 1
    band:   1

density:
  components: 4
  grid points: [24 24 63]
  charge: 0.0  # |e|

potential:
  grid points: [24 24 63]

species:
  Ni:
    name: Nickel
    id: 1802175e8de9ea26d9f4394ec1a7d564
    Z: 28.0
    valence: 16
    core: 12
    charge: 0.0
    file: /zhome/86/d/1666/PAW/gpaw-setups-0.9.20000/Ni.LDA.gz
    compensation charges: {type: gauss,
                           rc: 0.36,
                           lmax: 2}
    cutoffs: {filter: 2.14,
              core: 1.98}
    valence states:
      #              energy  rcut
      - 4s(2.00)    -5.858   1.164
      - 3p(6.00)   -71.266   1.207
      - 4p(0.00)    -1.338   1.207
      - 3d(8.00)    -9.141   1.138
      -  s          21.353   1.164
      -  d          18.071   1.138
  
    # Using partial waves for Ni as LCAO basis

  I:
    name: Iodine
    id: b559721c0c096a7b4c8fc0e0f4de5cf4
    Z: 53.0
    valence: 7
    core: 46
    charge: 0.0
    file: /zhome/86/d/1666/PAW/gpaw-setups-0.9.20000/I.LDA.gz
    compensation charges: {type: gauss,
                           rc: 0.37,
                           lmax: 2}
    cutoffs: {filter: 2.06,
              core: 2.90}
    valence states:
      #              energy  rcut
      - 5s(2.00)   -17.626   1.164
      - 5p(5.00)    -7.241   1.164
      -  s           9.585   1.164
      -  p          19.970   1.164
      -  d           0.000   1.164
  
    # Using partial waves for I as LCAO basis

Reference energy: -428067.566327  # eV

eigensolver:
  name: 'Davidson'
  niter: 2
  converge_bands: 'occupied'
Density mixing:
  Method: sum
  Backend: pulay
  Linear mixing parameter: 0.05
  old densities: 5
  Damping of long wavelength oscillations: 100
occupation numbers:
  Fermi-Dirac:
    width: 0.1000  # eV
  

poisson solver:
  ecut: 4800.0  # eV

xc functional:
  name: None

convergence criteria:
- Maximum [total energy] change in last 3 cyles: 0.0005 eV / valence electron
- Maximum integral of absolute [dens]ity change: 0.0001 electrons / valence electron
- Maximum integral of absolute [eigenst]ate change: 4e-08 eV^2 / valence electron
maximum number of iterations: 333

#      iter     time        total  log10-change:
#                          energy   eigst   dens
# iter:   1 15:23:06   -12.777427                  +1.0,+0.0,+0.0
# iter:   2 15:23:17   -12.477083   +0.41  -1.31   +0.8,+0.0,+0.0
# iter:   3 15:23:28   -12.182144   -0.28  -1.45   +0.7,+0.0,-0.0
# iter:   4 15:23:39   -12.220164   -0.92  -1.68   +0.8,+0.0,+0.0
# iter:   5 15:23:50   -12.591009   -1.09  -1.68   +0.8,+0.0,-0.0
# iter:   6 15:24:01   -12.279400   -1.41  -1.68   +0.8,+0.0,-0.0
# iter:   7 15:24:12   -12.290862   -1.77  -2.20   +0.9,+0.0,-0.0
# iter:   8 15:24:23   -12.278902c  -1.94  -2.28   +0.9,+0.0,-0.0
# iter:   9 15:24:34   -12.280356c  -2.16  -2.72   +0.9,+0.0,-0.0
# iter:  10 15:24:45   -12.284144c  -2.32  -2.92   +1.0,+0.0,-0.0
# iter:  11 15:24:56   -12.288539c  -2.39  -2.84   +1.0,+0.0,-0.0
# iter:  12 15:25:07   -12.287764c  -2.67  -2.84   +1.0,+0.0,-0.0
# iter:  13 15:25:18   -12.287827c  -2.83  -3.37   +1.0,+0.0,-0.0
# iter:  14 15:25:29   -12.288104c  -2.98  -3.56   +1.0,+0.0,-0.0
# iter:  15 15:25:40   -12.288085c  -3.11  -3.53   +1.0,+0.0,-0.0
# iter:  16 15:25:51   -12.288343c  -3.25  -3.09   +1.0,+0.0,-0.0
# iter:  17 15:26:02   -12.288567c  -3.42  -3.62   +1.0,+0.0,-0.0
# iter:  18 15:26:13   -12.289070c  -3.54  -3.59   +1.0,+0.0,-0.0
# iter:  19 15:26:24   -12.290096c  -3.70  -3.52   +1.0,+0.0,-0.0
# iter:  20 15:26:34   -12.291063c  -3.86  -3.77   +1.1,+0.0,-0.0
# iter:  21 15:26:45   -12.291167c  -3.90  -3.54   +1.1,+0.0,-0.0
# iter:  22 15:26:56   -12.291349c  -4.17  -3.73   +1.1,+0.0,-0.0
# iter:  23 15:27:07   -12.291391c  -4.32  -4.56c  +1.1,+0.0,-0.0
# iter:  24 15:27:17   -12.291395c  -4.46  -4.61c  +1.1,+0.0,-0.0
# iter:  25 15:27:28   -12.291470c  -4.62  -4.44c  +1.1,+0.0,-0.0
# iter:  26 15:27:39   -12.291302c  -4.77  -4.65c  +1.1,+0.0,-0.0
# iter:  27 15:27:50   -12.291373c  -4.93  -4.62c  +1.1,+0.0,-0.0
# iter:  28 15:28:01   -12.291349c  -5.08  -4.67c  +1.1,+0.0,-0.0
# iter:  29 15:28:11   -12.291351c  -5.24  -4.82c  +1.1,+0.0,-0.0
# iter:  30 15:28:22   -12.291354c  -5.41  -4.84c  +1.1,+0.0,+0.0
# iter:  31 15:28:33   -12.291353c  -5.58  -4.87c  +1.1,+0.0,+0.0
# iter:  32 15:28:44   -12.291393c  -5.72  -4.91c  +1.1,+0.0,-0.0
# iter:  33 15:28:54   -12.291392c  -5.87  -4.82c  +1.1,+0.0,-0.0
# iter:  34 15:29:05   -12.291386c  -6.02  -4.87c  +1.1,+0.0,-0.0
# iter:  35 15:29:16   -12.291427c  -6.18  -5.08c  +1.1,+0.0,-0.0
# iter:  36 15:29:27   -12.291432c  -6.33  -5.05c  +1.1,+0.0,-0.0
# iter:  37 15:29:37   -12.291452c  -6.47  -5.23c  +1.1,+0.0,-0.0
# iter:  38 15:29:48   -12.291461c  -6.63  -5.16c  +1.1,+0.0,-0.0
# iter:  39 15:29:59   -12.291465c  -6.78  -5.36c  +1.1,+0.0,-0.0
# iter:  40 15:30:10   -12.291469c  -6.92  -5.44c  +1.1,+0.0,-0.0
# iter:  41 15:30:20   -12.291465c  -7.07  -5.47c  +1.1,+0.0,-0.0
# iter:  42 15:30:31   -12.291465c  -7.22  -5.74c  +1.1,+0.0,-0.0
# iter:  43 15:30:42   -12.291451c  -7.36  -5.77c  +1.1,+0.0,-0.0
# iter:  44 15:30:53   -12.291450c  -7.50c -5.51c  +1.1,+0.0,-0.0
scf_steps: 44
energies:  # eV
  coulomb:          -7.710978
  zero:              0.066774
  xc:              -14.881741
  external:          0.000000
  kinetic:          10.256315
  spinorbit:         0.000000
  entropy:          -0.043639
  total:           -12.313269
  extrapolated:    -12.291450

dipole moment: [-3.379989, -5.937929, -0.409811]  # |e|*Ang

total magnetic moment: [1.071591, 0.001746, -0.000000]

local magnetic moments: [
  [ 1.111734, -0.000000, -0.000000],  # Ni 0
  [-0.016588, -0.000017, -0.000000],  # I  1
  [ 0.010650, -0.012718, -0.000000]]  # I  2


Fermi level: 0.320 eV

kpt = [-0.455, -0.455, 0.000], weight = 0.008:
  Band      eig [eV]   occ [0-1]
     0       -63.420       1.000
   ...
    22        -1.491       1.000
    23        -1.297       1.000
    24        -1.261       1.000
    25        -0.821       1.000
    26        -0.600       1.000
    27        -0.583       1.000
    28        -0.319       0.998
    29        -0.262       0.997
    30         0.563       0.081
    31         0.623       0.046
    32         3.977       0.000
    33         4.132       0.000
    34         6.127       0.000
    35         6.253       0.000
    36         6.546       0.000
    37         6.758       0.000
   ...
    39         7.406       0.000

kpt = [-0.455, -0.364, 0.000], weight = 0.008:
  Band      eig [eV]   occ [0-1]
     0       -63.420       1.000
   ...
    22        -1.402       1.000
    23        -1.365       1.000
    24        -1.254       1.000
    25        -0.885       1.000
    26        -0.663       1.000
    27        -0.582       1.000
    28        -0.228       0.996
    29        -0.105       0.986
    30         0.590       0.063
    31         0.737       0.015
    32         3.669       0.000
    33         4.169       0.000
    34         5.796       0.000
    35         5.927       0.000
    36         6.316       0.000
    37         6.467       0.000
   ...
    39         7.321       0.000

kpt = [-0.455, -0.273, 0.000], weight = 0.008:
  Band      eig [eV]   occ [0-1]
     0       -63.420       1.000
   ...
    22        -1.460       1.000
    23        -1.347       1.000
    24        -1.220       1.000
    25        -0.864       1.000
    26        -0.714       1.000
    27        -0.557       1.000
    28        -0.129       0.989
    29         0.064       0.928
    30         0.598       0.058
    31         0.850       0.005
    32         3.366       0.000
    33         4.013       0.000
    34         5.325       0.000
    35         5.760       0.000
    36         6.002       0.000
    37         6.030       0.000
   ...
    39         6.655       0.000
(only showing first 3 out of 121 k-points)

Gap: 0.411 eV
Transition (v -> c):
  (s=0, k=43, n=29, [-0.18, 0.45, 0.00]) -> (s=0, k=55, n=30, [0.00, -0.45, 0.00])
# Writing to gsq-15.gpw (mode='')

---

timing:  # [seconds]
  Total: 1455.628  # ━━━━━━━━━━━━━━━━━━━━━━━━━━━━━━━━━━━━━━━━━━━━━━━━━━━━━━━━
  Init:     7.537  # ╸
  SCF:    476.776  # ━━━━━━━━━━━━━━━━━━╸

Max RSS: 758.781  # MiB
