#  __  _  _
# | _ |_)|_||  |
# |__||  | ||/\| - 24.1.0

User:   s194099@n-62-29-14
Date:   Wed Apr 17 16:02:15 2024
Arch:   x86_64
Pid:    32167
CWD:    /zhome/84/5/147090/10302_NM/NiI2
Python: 3.8.5
gpaw:   /zhome/84/5/147090/venv1/gpaw/gpaw (10808453a8)
_gpaw:  /zhome/84/5/147090/venv1/gpaw/
        _gpaw.cpython-38-x86_64-linux-gnu.so (10808453a8)
ase:    /zhome/84/5/147090/venv1/ase/ase (version 3.23.0b1-c36115a2db)
numpy:  /zhome/84/5/147090/venv1/lib/python3.8/site-packages/numpy (version 1.24.4)
scipy:  /zhome/84/5/147090/venv1/lib/python3.8/site-packages/scipy (version 1.10.1)
libxc:  4.3.4
units:  Angstrom and eV
cores: 12
OpenMP: False
OMP_NUM_THREADS: 1

---
input parameters:
  kpts: 
    density: 6.0
    gamma: True
  magmoms: [[1, 0, 0], [0, 0, 0], [0, 0, 0]]
  mixer: 
    backend: 'pulay'
    beta: 0.05
    method: 'sum'
    nmaxold: 5
    weight: 100
  mode: 
    name: 'pw'
    ecut: 600
    qspiral: array([0.23809524, 0.23809524, 0.        ])
  parallel: 
    kpt: None
    domain: 1
    band: 1
    order: 'kdb'
    stridebands: False
    augment_grids: False
    sl_auto: False
    sl_default: None
    sl_diagonalize: None
    sl_inverse_cholesky: None
    sl_lcao: None
    sl_lrtddft: None
    use_elpa: False
    elpasolver: '2stage'
    buffer_size: None
    gpu: False
  symmetry: 
    point_group: False
    time_reversal: False
  xc: 
    name: 'LDA'

#                        
#                        
#                        
#                        
#                        
#              I         
#                        
#        Ni              
#          I             
#                        
#                        
#                        
#                        
#                        

atoms: [  # symbols, positions [Ang] and initial magnetic moments
  [ Ni, [   0.000000,    0.000000,    5.513573], [ 1.000,  0.000,  0.000]], # 0
  [  I, [   1.984831,    1.145943,    7.027147], [ 0.000,  0.000,  0.000]], # 1
  [  I, [  -0.000000,    2.291886,    4.000000], [ 0.000,  0.000,  0.000]]] # 2

cell: [  # Ang
#     x            y            z
  [   3.969662,    0.000000,    0.000000],
  [  -1.984831,    3.437828,    0.000000],
  [   0.000000,   -0.000000,   11.027147]]

periodic: [True      , True      , False     ]
lengths:  [  3.969662,   3.969662,  11.027147]  # Ang
angles:   [ 90.000000,  90.000000, 120.000000]

symmetry:
  number of symmetries: 1
  rotations: [
    [[ 1,  0,  0], [ 0,  1,  0], [ 0,  0,  1]]]

bz sampling:
  number of bz points: 121
  number of ibz points: 121
  monkhorst-pack size: [11, 11, 1]
  monkhorst-pack shift: [0, 0, 0]
  points and weights: [
    [[ -0.45454545,  -0.45454545,   0.00000000], 0.00826446],  # 0
    [[ -0.45454545,  -0.36363636,   0.00000000], 0.00826446],  # 1
    [[ -0.45454545,  -0.27272727,   0.00000000], 0.00826446],  # 2
    [[ -0.45454545,  -0.18181818,   0.00000000], 0.00826446],  # 3
    [[ -0.45454545,  -0.09090909,   0.00000000], 0.00826446],  # 4
    [[ -0.45454545,   0.00000000,   0.00000000], 0.00826446],  # 5
    [[ -0.45454545,   0.09090909,   0.00000000], 0.00826446],  # 6
    [[ -0.45454545,   0.18181818,   0.00000000], 0.00826446],  # 7
    [[ -0.45454545,   0.27272727,   0.00000000], 0.00826446],  # 8
    [[ -0.45454545,   0.36363636,   0.00000000], 0.00826446],  # 9
    # ...
    [[  0.45454545,   0.45454545,   0.00000000], 0.00826446]]  # 120

plane wave coefficients: 5038
cutoff: 600.0 eV

spin-components: 4  # (non-collinear spins)
bands: 40
valence electrons: 30.0
spin-degeneracy: 1
dtype: complex128

memory:
    wave functions: 778_736_640  # bytes  (64_894_720 per core)

parallelization:
    kpt:    12
    domain: 1
    band:   1

density:
  components: 4
  grid points: [24 24 63]
  charge: 0.0  # |e|

potential:
  grid points: [24 24 63]

species:
  Ni:
    name: Nickel
    id: 1802175e8de9ea26d9f4394ec1a7d564
    Z: 28.0
    valence: 16
    core: 12
    charge: 0.0
    file: /zhome/86/d/1666/PAW/gpaw-setups-0.9.20000/Ni.LDA.gz
    compensation charges: {type: gauss,
                           rc: 0.36,
                           lmax: 2}
    cutoffs: {filter: 2.14,
              core: 1.98}
    valence states:
      #              energy  rcut
      - 4s(2.00)    -5.858   1.164
      - 3p(6.00)   -71.266   1.207
      - 4p(0.00)    -1.338   1.207
      - 3d(8.00)    -9.141   1.138
      -  s          21.353   1.164
      -  d          18.071   1.138
  
    # Using partial waves for Ni as LCAO basis

  I:
    name: Iodine
    id: b559721c0c096a7b4c8fc0e0f4de5cf4
    Z: 53.0
    valence: 7
    core: 46
    charge: 0.0
    file: /zhome/86/d/1666/PAW/gpaw-setups-0.9.20000/I.LDA.gz
    compensation charges: {type: gauss,
                           rc: 0.37,
                           lmax: 2}
    cutoffs: {filter: 2.06,
              core: 2.90}
    valence states:
      #              energy  rcut
      - 5s(2.00)   -17.626   1.164
      - 5p(5.00)    -7.241   1.164
      -  s           9.585   1.164
      -  p          19.970   1.164
      -  d           0.000   1.164
  
    # Using partial waves for I as LCAO basis

Reference energy: -428067.566327  # eV

eigensolver:
  name: 'Davidson'
  niter: 2
  converge_bands: 'occupied'
Density mixing:
  Method: sum
  Backend: pulay
  Linear mixing parameter: 0.05
  old densities: 5
  Damping of long wavelength oscillations: 100
occupation numbers:
  Fermi-Dirac:
    width: 0.1000  # eV
  

poisson solver:
  ecut: 4800.0  # eV

xc functional:
  name: None

convergence criteria:
- Maximum [total energy] change in last 3 cyles: 0.0005 eV / valence electron
- Maximum integral of absolute [dens]ity change: 0.0001 electrons / valence electron
- Maximum integral of absolute [eigenst]ate change: 4e-08 eV^2 / valence electron
maximum number of iterations: 333

#      iter     time        total  log10-change:
#                          energy   eigst   dens
# iter:   1 16:02:33   -13.341716                  +1.0,+0.0,+0.0
# iter:   2 16:02:44   -12.593960   +0.15  -1.31   +0.9,+0.0,+0.0
# iter:   3 16:02:55   -12.210368   -0.45  -1.45   +0.9,+0.0,+0.0
# iter:   4 16:03:06   -12.268556   -1.18  -1.68   +1.0,+0.0,+0.0
# iter:   5 16:03:17   -12.567942   -1.33  -1.66   +1.0,+0.0,-0.0
# iter:   6 16:03:28   -12.291253   -1.63  -1.71   +1.0,+0.0,-0.0
# iter:   7 16:03:39   -12.290773   -2.06  -2.18   +1.1,+0.0,-0.0
# iter:   8 16:03:50   -12.284886c  -2.27  -2.31   +1.1,+0.0,-0.0
# iter:   9 16:04:02   -12.286595c  -2.51  -2.70   +1.2,+0.0,-0.0
# iter:  10 16:04:12   -12.287868c  -2.75  -3.00   +1.2,+0.0,-0.0
# iter:  11 16:04:23   -12.295443c  -2.90  -2.96   +1.2,+0.0,-0.0
# iter:  12 16:04:34   -12.291937c  -2.94  -2.74   +1.2,+0.0,+0.0
# iter:  13 16:04:45   -12.292668c  -3.28  -3.47   +1.2,+0.0,+0.0
# iter:  14 16:04:56   -12.293924c  -3.44  -3.31   +1.2,+0.0,+0.0
# iter:  15 16:05:07   -12.294438c  -3.63  -3.38   +1.2,+0.0,+0.0
# iter:  16 16:05:18   -12.294545c  -3.81  -3.87   +1.2,+0.0,+0.0
# iter:  17 16:05:29   -12.294943c  -3.98  -4.01c  +1.3,+0.0,+0.0
# iter:  18 16:05:40   -12.294950c  -4.13  -4.03c  +1.3,+0.0,+0.0
# iter:  19 16:05:51   -12.295211c  -4.30  -3.99   +1.3,+0.0,+0.0
# iter:  20 16:06:01   -12.295496c  -4.47  -4.13c  +1.3,+0.0,+0.0
# iter:  21 16:06:12   -12.295593c  -4.62  -4.25c  +1.3,+0.0,+0.0
# iter:  22 16:06:23   -12.295580c  -4.79  -4.50c  +1.3,+0.0,+0.0
# iter:  23 16:06:34   -12.295554c  -4.96  -4.51c  +1.3,+0.0,+0.0
# iter:  24 16:06:45   -12.295545c  -5.12  -4.62c  +1.3,+0.0,+0.0
# iter:  25 16:06:56   -12.295572c  -5.29  -4.70c  +1.3,+0.0,+0.0
# iter:  26 16:07:07   -12.295581c  -5.46  -4.84c  +1.3,+0.0,+0.0
# iter:  27 16:07:18   -12.295600c  -5.62  -4.85c  +1.3,+0.0,+0.0
# iter:  28 16:07:29   -12.295609c  -5.80  -4.85c  +1.3,+0.0,+0.0
# iter:  29 16:07:40   -12.295603c  -5.98  -4.86c  +1.3,+0.0,+0.0
# iter:  30 16:07:50   -12.295598c  -6.16  -4.86c  +1.3,+0.0,+0.0
# iter:  31 16:08:01   -12.295594c  -6.34  -4.87c  +1.3,+0.0,+0.0
# iter:  32 16:08:12   -12.295601c  -6.52  -4.88c  +1.3,+0.0,+0.0
# iter:  33 16:08:23   -12.295621c  -6.68  -4.88c  +1.3,+0.0,+0.0
# iter:  34 16:08:34   -12.295646c  -6.84  -4.90c  +1.3,+0.0,+0.0
# iter:  35 16:08:45   -12.295679c  -6.94  -4.99c  +1.3,+0.0,+0.0
# iter:  36 16:08:55   -12.295680c  -7.15  -5.24c  +1.3,+0.0,+0.0
# iter:  37 16:09:06   -12.295681c  -7.33  -5.66c  +1.3,+0.0,+0.0
# iter:  38 16:09:17   -12.295687c  -7.50c -5.70c  +1.3,+0.0,+0.0
scf_steps: 38
energies:  # eV
  coulomb:          -7.710267
  zero:              0.066547
  xc:              -14.888037
  external:          0.000000
  kinetic:          10.257617
  spinorbit:         0.000000
  entropy:          -0.043093
  total:           -12.317234
  extrapolated:    -12.295687

dipole moment: [-3.621849, -6.272412, -1.599896]  # |e|*Ang

total magnetic moment: [1.269521, 0.018002, 0.000000]

local magnetic moments: [
  [ 1.116505,  0.000000,  0.000000],  # Ni 0
  [ 0.005007, -0.066309, -0.000000],  # I  1
  [ 0.004932, -0.066314, -0.000000]]  # I  2


Fermi level: 0.326 eV

kpt = [-0.455, -0.455, 0.000], weight = 0.008:
  Band      eig [eV]   occ [0-1]
     0       -63.425       1.000
   ...
    22        -1.511       1.000
    23        -1.338       1.000
    24        -1.275       1.000
    25        -0.807       1.000
    26        -0.623       1.000
    27        -0.583       1.000
    28        -0.274       0.998
    29        -0.206       0.995
    30         0.598       0.062
    31         0.682       0.028
    32         3.643       0.000
    33         4.111       0.000
    34         6.047       0.000
    35         6.431       0.000
    36         6.476       0.000
    37         6.484       0.000
   ...
    39         6.689       0.000

kpt = [-0.455, -0.364, 0.000], weight = 0.008:
  Band      eig [eV]   occ [0-1]
     0       -63.425       1.000
   ...
    22        -1.464       1.000
    23        -1.373       1.000
    24        -1.328       1.000
    25        -0.924       1.000
    26        -0.658       1.000
    27        -0.615       1.000
    28        -0.199       0.995
    29        -0.023       0.971
    30         0.656       0.036
    31         0.805       0.008
    32         3.220       0.000
    33         4.069       0.000
    34         5.311       0.000
    35         6.059       0.000
    36         6.132       0.000
    37         6.388       0.000
   ...
    39         7.291       0.000

kpt = [-0.455, -0.273, 0.000], weight = 0.008:
  Band      eig [eV]   occ [0-1]
     0       -63.425       1.000
   ...
    22        -1.434       1.000
    23        -1.391       1.000
    24        -1.288       1.000
    25        -0.950       1.000
    26        -0.687       1.000
    27        -0.600       1.000
    28        -0.123       0.989
    29         0.076       0.924
    30         0.639       0.042
    31         0.870       0.004
    32         3.259       0.000
    33         3.829       0.000
    34         5.257       0.000
    35         5.954       0.000
    36         5.978       0.000
    37         6.312       0.000
   ...
    39         6.613       0.000
(only showing first 3 out of 121 k-points)

Gap: 0.371 eV
Transition (v -> c):
  (s=0, k=93, n=29, [0.27, 0.00, 0.00]) -> (s=0, k=110, n=30, [0.45, -0.45, 0.00])
# Writing to gsq-20.gpw (mode='')

