#  __  _  _
# | _ |_)|_||  |
# |__||  | ||/\| - 24.1.0

User:   s194099@n-62-29-14
Date:   Wed Apr 17 16:45:55 2024
Arch:   x86_64
Pid:    32167
CWD:    /zhome/84/5/147090/10302_NM/NiI2
Python: 3.8.5
gpaw:   /zhome/84/5/147090/venv1/gpaw/gpaw (10808453a8)
_gpaw:  /zhome/84/5/147090/venv1/gpaw/
        _gpaw.cpython-38-x86_64-linux-gnu.so (10808453a8)
ase:    /zhome/84/5/147090/venv1/ase/ase (version 3.23.0b1-c36115a2db)
numpy:  /zhome/84/5/147090/venv1/lib/python3.8/site-packages/numpy (version 1.24.4)
scipy:  /zhome/84/5/147090/venv1/lib/python3.8/site-packages/scipy (version 1.10.1)
libxc:  4.3.4
units:  Angstrom and eV
cores: 12
OpenMP: False
OMP_NUM_THREADS: 1

---
input parameters:
  kpts: 
    density: 6.0
    gamma: True
  magmoms: [[1, 0, 0], [0, 0, 0], [0, 0, 0]]
  mixer: 
    backend: 'pulay'
    beta: 0.05
    method: 'sum'
    nmaxold: 5
    weight: 100
  mode: 
    name: 'pw'
    ecut: 600
    qspiral: array([0.07142857, 0.07142857, 0.        ])
  parallel: 
    kpt: None
    domain: 1
    band: 1
    order: 'kdb'
    stridebands: False
    augment_grids: False
    sl_auto: False
    sl_default: None
    sl_diagonalize: None
    sl_inverse_cholesky: None
    sl_lcao: None
    sl_lrtddft: None
    use_elpa: False
    elpasolver: '2stage'
    buffer_size: None
    gpu: False
  symmetry: 
    point_group: False
    time_reversal: False
  xc: 
    name: 'LDA'

#                        
#                        
#                        
#                        
#                        
#              I         
#                        
#        Ni              
#          I             
#                        
#                        
#                        
#                        
#                        

atoms: [  # symbols, positions [Ang] and initial magnetic moments
  [ Ni, [   0.000000,    0.000000,    5.513573], [ 1.000,  0.000,  0.000]], # 0
  [  I, [   1.984831,    1.145943,    7.027147], [ 0.000,  0.000,  0.000]], # 1
  [  I, [  -0.000000,    2.291886,    4.000000], [ 0.000,  0.000,  0.000]]] # 2

cell: [  # Ang
#     x            y            z
  [   3.969662,    0.000000,    0.000000],
  [  -1.984831,    3.437828,    0.000000],
  [   0.000000,   -0.000000,   11.027147]]

periodic: [True      , True      , False     ]
lengths:  [  3.969662,   3.969662,  11.027147]  # Ang
angles:   [ 90.000000,  90.000000, 120.000000]

symmetry:
  number of symmetries: 1
  rotations: [
    [[ 1,  0,  0], [ 0,  1,  0], [ 0,  0,  1]]]

bz sampling:
  number of bz points: 121
  number of ibz points: 121
  monkhorst-pack size: [11, 11, 1]
  monkhorst-pack shift: [0, 0, 0]
  points and weights: [
    [[ -0.45454545,  -0.45454545,   0.00000000], 0.00826446],  # 0
    [[ -0.45454545,  -0.36363636,   0.00000000], 0.00826446],  # 1
    [[ -0.45454545,  -0.27272727,   0.00000000], 0.00826446],  # 2
    [[ -0.45454545,  -0.18181818,   0.00000000], 0.00826446],  # 3
    [[ -0.45454545,  -0.09090909,   0.00000000], 0.00826446],  # 4
    [[ -0.45454545,   0.00000000,   0.00000000], 0.00826446],  # 5
    [[ -0.45454545,   0.09090909,   0.00000000], 0.00826446],  # 6
    [[ -0.45454545,   0.18181818,   0.00000000], 0.00826446],  # 7
    [[ -0.45454545,   0.27272727,   0.00000000], 0.00826446],  # 8
    [[ -0.45454545,   0.36363636,   0.00000000], 0.00826446],  # 9
    # ...
    [[  0.45454545,   0.45454545,   0.00000000], 0.00826446]]  # 120

plane wave coefficients: 5038
cutoff: 600.0 eV

spin-components: 4  # (non-collinear spins)
bands: 40
valence electrons: 30.0
spin-degeneracy: 1
dtype: complex128

memory:
    wave functions: 778_736_640  # bytes  (64_894_720 per core)

parallelization:
    kpt:    12
    domain: 1
    band:   1

density:
  components: 4
  grid points: [24 24 63]
  charge: 0.0  # |e|

potential:
  grid points: [24 24 63]

species:
  Ni:
    name: Nickel
    id: 1802175e8de9ea26d9f4394ec1a7d564
    Z: 28.0
    valence: 16
    core: 12
    charge: 0.0
    file: /zhome/86/d/1666/PAW/gpaw-setups-0.9.20000/Ni.LDA.gz
    compensation charges: {type: gauss,
                           rc: 0.36,
                           lmax: 2}
    cutoffs: {filter: 2.14,
              core: 1.98}
    valence states:
      #              energy  rcut
      - 4s(2.00)    -5.858   1.164
      - 3p(6.00)   -71.266   1.207
      - 4p(0.00)    -1.338   1.207
      - 3d(8.00)    -9.141   1.138
      -  s          21.353   1.164
      -  d          18.071   1.138
  
    # Using partial waves for Ni as LCAO basis

  I:
    name: Iodine
    id: b559721c0c096a7b4c8fc0e0f4de5cf4
    Z: 53.0
    valence: 7
    core: 46
    charge: 0.0
    file: /zhome/86/d/1666/PAW/gpaw-setups-0.9.20000/I.LDA.gz
    compensation charges: {type: gauss,
                           rc: 0.37,
                           lmax: 2}
    cutoffs: {filter: 2.06,
              core: 2.90}
    valence states:
      #              energy  rcut
      - 5s(2.00)   -17.626   1.164
      - 5p(5.00)    -7.241   1.164
      -  s           9.585   1.164
      -  p          19.970   1.164
      -  d           0.000   1.164
  
    # Using partial waves for I as LCAO basis

Reference energy: -428067.566327  # eV

eigensolver:
  name: 'Davidson'
  niter: 2
  converge_bands: 'occupied'
Density mixing:
  Method: sum
  Backend: pulay
  Linear mixing parameter: 0.05
  old densities: 5
  Damping of long wavelength oscillations: 100
occupation numbers:
  Fermi-Dirac:
    width: 0.1000  # eV
  

poisson solver:
  ecut: 4800.0  # eV

xc functional:
  name: None

convergence criteria:
- Maximum [total energy] change in last 3 cyles: 0.0005 eV / valence electron
- Maximum integral of absolute [dens]ity change: 0.0001 electrons / valence electron
- Maximum integral of absolute [eigenst]ate change: 4e-08 eV^2 / valence electron
maximum number of iterations: 333

#      iter     time        total  log10-change:
#                          energy   eigst   dens
# iter:   1 16:46:13   -13.931963                  +1.0,+0.0,+0.0
# iter:   2 16:46:23   -12.696138   -0.49  -1.31   +1.0,+0.0,+0.0
# iter:   3 16:46:34   -12.237722   -0.76  -1.45   +1.2,+0.0,-0.0
# iter:   4 16:46:45   -12.293543   -1.56  -1.68   +1.3,+0.0,-0.0
# iter:   5 16:46:56   -12.519245   -1.69  -1.66   +1.4,+0.0,-0.0
# iter:   6 16:47:07   -12.296499   -1.93  -1.76   +1.5,+0.0,-0.0
# iter:   7 16:47:17   -12.299610   -2.67  -2.23   +1.5,+0.0,+0.0
# iter:   8 16:47:28   -12.295491c  -2.78  -2.30   +1.6,+0.0,-0.0
# iter:   9 16:47:39   -12.298132c  -3.22  -2.81   +1.6,+0.0,-0.0
# iter:  10 16:47:50   -12.299400c  -3.70  -2.97   +1.7,+0.0,-0.0
# iter:  11 16:48:00   -12.302188c  -3.54  -3.05   +1.7,+0.0,-0.0
# iter:  12 16:48:11   -12.302771c  -4.27  -3.39   +1.7,+0.0,-0.0
# iter:  13 16:48:22   -12.302880c  -4.53  -3.69   +1.7,+0.0,-0.0
# iter:  14 16:48:32   -12.303167c  -4.60  -3.72   +1.7,+0.0,+0.0
# iter:  15 16:48:43   -12.303721c  -4.91  -3.56   +1.7,+0.0,-0.0
# iter:  16 16:48:54   -12.304463c  -5.12  -3.86   +1.7,+0.0,-0.0
# iter:  17 16:49:04   -12.304677c  -5.33  -3.77   +1.7,+0.0,-0.0
# iter:  18 16:49:15   -12.304919c  -5.16  -3.87   +1.7,+0.0,-0.0
# iter:  19 16:49:26   -12.304962c  -5.84  -4.16c  +1.7,+0.0,-0.0
# iter:  20 16:49:37   -12.304983c  -6.12  -4.41c  +1.7,+0.0,-0.0
# iter:  21 16:49:47   -12.304919c  -6.33  -4.40c  +1.7,+0.0,-0.0
# iter:  22 16:49:58   -12.304940c  -6.53  -4.48c  +1.7,+0.0,-0.0
# iter:  23 16:50:09   -12.305020c  -6.64  -4.54c  +1.7,+0.0,-0.0
# iter:  24 16:50:19   -12.305027c  -6.89  -4.75c  +1.7,+0.0,+0.0
# iter:  25 16:50:30   -12.305089c  -6.80  -4.76c  +1.7,+0.0,-0.0
# iter:  26 16:50:41   -12.305066c  -7.24  -4.74c  +1.7,+0.0,-0.0
# iter:  27 16:50:52   -12.305076c  -7.49c -4.85c  +1.7,+0.0,-0.0
scf_steps: 27
energies:  # eV
  coulomb:          -7.878802
  zero:              0.065248
  xc:              -14.941168
  external:          0.000000
  kinetic:          10.471825
  spinorbit:         0.000000
  entropy:          -0.044360
  total:           -12.327256
  extrapolated:    -12.305076

dipole moment: [-4.102071, -7.104603, -4.309257]  # |e|*Ang

total magnetic moment: [1.747699, 0.020357, -0.000000]

local magnetic moments: [
  [ 1.141917,  0.000000, -0.000000],  # Ni 0
  [ 0.153705, -0.074019,  0.000000],  # I  1
  [ 0.153704, -0.074022,  0.000000]]  # I  2


Fermi level: 0.333 eV

kpt = [-0.455, -0.455, 0.000], weight = 0.008:
  Band      eig [eV]   occ [0-1]
     0       -63.452       1.000
   ...
    22        -1.615       1.000
    23        -1.469       1.000
    24        -1.394       1.000
    25        -0.776       1.000
    26        -0.638       1.000
    27        -0.612       1.000
    28        -0.119       0.989
    29        -0.105       0.988
    30         0.830       0.007
    31         0.848       0.006
    32         3.090       0.000
    33         3.759       0.000
    34         5.151       0.000
    35         6.072       0.000
    36         6.161       0.000
    37         6.259       0.000
   ...
    39         6.659       0.000

kpt = [-0.455, -0.364, 0.000], weight = 0.008:
  Band      eig [eV]   occ [0-1]
     0       -63.452       1.000
   ...
    22        -1.544       1.000
    23        -1.424       1.000
    24        -1.293       1.000
    25        -0.752       1.000
    26        -0.626       1.000
    27        -0.554       1.000
    28        -0.325       0.999
    29        -0.135       0.991
    30         0.640       0.045
    31         0.797       0.010
    32         3.473       0.000
    33         4.104       0.000
    34         5.723       0.000
    35         6.110       0.000
    36         6.250       0.000
    37         6.420       0.000
   ...
    39         7.040       0.000

kpt = [-0.455, -0.273, 0.000], weight = 0.008:
  Band      eig [eV]   occ [0-1]
     0       -63.452       1.000
   ...
    22        -1.519       1.000
    23        -1.398       1.000
    24        -1.223       1.000
    25        -0.747       1.000
    26        -0.623       1.000
    27        -0.560       1.000
    28        -0.404       0.999
    29        -0.147       0.992
    30         0.506       0.151
    31         0.779       0.011
    32         3.955       0.000
    33         4.152       0.000
    34         5.903       0.000
    35         6.176       0.000
    36         6.588       0.000
    37         6.670       0.000
   ...
    39         7.224       0.000
(only showing first 3 out of 121 k-points)

No gap
# Writing to gsq-27.gpw (mode='')

---

timing:  # [seconds]
  Total: 298.046  # ━━━━━━━━━━━━━━━━━━━━━━━━━━━━━━━━━━━━━━━━━━━━━━━━━━━━━━━━━
  Init:    7.524  # ━╸
  SCF:   289.475  # ━━━━━━━━━━━━━━━━━━━━━━━━━━━━━━━━━━━━━━━━━━━━━━━━━━━━━━━╸

Max RSS: 817.230  # MiB
