#  __  _  _
# | _ |_)|_||  |
# |__||  | ||/\| - 24.1.0

User:   s194099@n-62-29-14
Date:   Wed Apr 17 16:50:52 2024
Arch:   x86_64
Pid:    32167
CWD:    /zhome/84/5/147090/10302_NM/NiI2
Python: 3.8.5
gpaw:   /zhome/84/5/147090/venv1/gpaw/gpaw (10808453a8)
_gpaw:  /zhome/84/5/147090/venv1/gpaw/
        _gpaw.cpython-38-x86_64-linux-gnu.so (10808453a8)
ase:    /zhome/84/5/147090/venv1/ase/ase (version 3.23.0b1-c36115a2db)
numpy:  /zhome/84/5/147090/venv1/lib/python3.8/site-packages/numpy (version 1.24.4)
scipy:  /zhome/84/5/147090/venv1/lib/python3.8/site-packages/scipy (version 1.10.1)
libxc:  4.3.4
units:  Angstrom and eV
cores: 12
OpenMP: False
OMP_NUM_THREADS: 1

---
input parameters:
  kpts: 
    density: 6.0
    gamma: True
  magmoms: [[1, 0, 0], [0, 0, 0], [0, 0, 0]]
  mixer: 
    backend: 'pulay'
    beta: 0.05
    method: 'sum'
    nmaxold: 5
    weight: 100
  mode: 
    name: 'pw'
    ecut: 600
    qspiral: array([0.04761905, 0.04761905, 0.        ])
  parallel: 
    kpt: None
    domain: 1
    band: 1
    order: 'kdb'
    stridebands: False
    augment_grids: False
    sl_auto: False
    sl_default: None
    sl_diagonalize: None
    sl_inverse_cholesky: None
    sl_lcao: None
    sl_lrtddft: None
    use_elpa: False
    elpasolver: '2stage'
    buffer_size: None
    gpu: False
  symmetry: 
    point_group: False
    time_reversal: False
  xc: 
    name: 'LDA'

#                        
#                        
#                        
#                        
#                        
#              I         
#                        
#        Ni              
#          I             
#                        
#                        
#                        
#                        
#                        

atoms: [  # symbols, positions [Ang] and initial magnetic moments
  [ Ni, [   0.000000,    0.000000,    5.513573], [ 1.000,  0.000,  0.000]], # 0
  [  I, [   1.984831,    1.145943,    7.027147], [ 0.000,  0.000,  0.000]], # 1
  [  I, [  -0.000000,    2.291886,    4.000000], [ 0.000,  0.000,  0.000]]] # 2

cell: [  # Ang
#     x            y            z
  [   3.969662,    0.000000,    0.000000],
  [  -1.984831,    3.437828,    0.000000],
  [   0.000000,   -0.000000,   11.027147]]

periodic: [True      , True      , False     ]
lengths:  [  3.969662,   3.969662,  11.027147]  # Ang
angles:   [ 90.000000,  90.000000, 120.000000]

symmetry:
  number of symmetries: 1
  rotations: [
    [[ 1,  0,  0], [ 0,  1,  0], [ 0,  0,  1]]]

bz sampling:
  number of bz points: 121
  number of ibz points: 121
  monkhorst-pack size: [11, 11, 1]
  monkhorst-pack shift: [0, 0, 0]
  points and weights: [
    [[ -0.45454545,  -0.45454545,   0.00000000], 0.00826446],  # 0
    [[ -0.45454545,  -0.36363636,   0.00000000], 0.00826446],  # 1
    [[ -0.45454545,  -0.27272727,   0.00000000], 0.00826446],  # 2
    [[ -0.45454545,  -0.18181818,   0.00000000], 0.00826446],  # 3
    [[ -0.45454545,  -0.09090909,   0.00000000], 0.00826446],  # 4
    [[ -0.45454545,   0.00000000,   0.00000000], 0.00826446],  # 5
    [[ -0.45454545,   0.09090909,   0.00000000], 0.00826446],  # 6
    [[ -0.45454545,   0.18181818,   0.00000000], 0.00826446],  # 7
    [[ -0.45454545,   0.27272727,   0.00000000], 0.00826446],  # 8
    [[ -0.45454545,   0.36363636,   0.00000000], 0.00826446],  # 9
    # ...
    [[  0.45454545,   0.45454545,   0.00000000], 0.00826446]]  # 120

plane wave coefficients: 5038
cutoff: 600.0 eV

spin-components: 4  # (non-collinear spins)
bands: 40
valence electrons: 30.0
spin-degeneracy: 1
dtype: complex128

memory:
    wave functions: 778_736_640  # bytes  (64_894_720 per core)

parallelization:
    kpt:    12
    domain: 1
    band:   1

density:
  components: 4
  grid points: [24 24 63]
  charge: 0.0  # |e|

potential:
  grid points: [24 24 63]

species:
  Ni:
    name: Nickel
    id: 1802175e8de9ea26d9f4394ec1a7d564
    Z: 28.0
    valence: 16
    core: 12
    charge: 0.0
    file: /zhome/86/d/1666/PAW/gpaw-setups-0.9.20000/Ni.LDA.gz
    compensation charges: {type: gauss,
                           rc: 0.36,
                           lmax: 2}
    cutoffs: {filter: 2.14,
              core: 1.98}
    valence states:
      #              energy  rcut
      - 4s(2.00)    -5.858   1.164
      - 3p(6.00)   -71.266   1.207
      - 4p(0.00)    -1.338   1.207
      - 3d(8.00)    -9.141   1.138
      -  s          21.353   1.164
      -  d          18.071   1.138
  
    # Using partial waves for Ni as LCAO basis

  I:
    name: Iodine
    id: b559721c0c096a7b4c8fc0e0f4de5cf4
    Z: 53.0
    valence: 7
    core: 46
    charge: 0.0
    file: /zhome/86/d/1666/PAW/gpaw-setups-0.9.20000/I.LDA.gz
    compensation charges: {type: gauss,
                           rc: 0.37,
                           lmax: 2}
    cutoffs: {filter: 2.06,
              core: 2.90}
    valence states:
      #              energy  rcut
      - 5s(2.00)   -17.626   1.164
      - 5p(5.00)    -7.241   1.164
      -  s           9.585   1.164
      -  p          19.970   1.164
      -  d           0.000   1.164
  
    # Using partial waves for I as LCAO basis

Reference energy: -428067.566327  # eV

eigensolver:
  name: 'Davidson'
  niter: 2
  converge_bands: 'occupied'
Density mixing:
  Method: sum
  Backend: pulay
  Linear mixing parameter: 0.05
  old densities: 5
  Damping of long wavelength oscillations: 100
occupation numbers:
  Fermi-Dirac:
    width: 0.1000  # eV
  

poisson solver:
  ecut: 4800.0  # eV

xc functional:
  name: None

convergence criteria:
- Maximum [total energy] change in last 3 cyles: 0.0005 eV / valence electron
- Maximum integral of absolute [dens]ity change: 0.0001 electrons / valence electron
- Maximum integral of absolute [eigenst]ate change: 4e-08 eV^2 / valence electron
maximum number of iterations: 333

#      iter     time        total  log10-change:
#                          energy   eigst   dens
# iter:   1 16:51:10   -13.963167                  +1.0,+0.0,+0.0
# iter:   2 16:51:21   -12.696541   -0.54  -1.31   +1.0,+0.0,-0.0
# iter:   3 16:51:32   -12.234714   -0.77  -1.45   +1.2,+0.0,-0.0
# iter:   4 16:51:43   -12.286581   -1.51  -1.68   +1.4,+0.0,-0.0
# iter:   5 16:51:54   -12.528343   -1.64  -1.66   +1.4,+0.0,-0.0
# iter:   6 16:52:05   -12.283394   -1.87  -1.75   +1.5,+0.0,+0.0
# iter:   7 16:52:16   -12.285822   -2.62  -2.24   +1.5,+0.0,+0.0
# iter:   8 16:52:27   -12.286016c  -2.86  -2.32   +1.6,+0.0,+0.0
# iter:   9 16:52:38   -12.288449c  -3.17  -2.71   +1.7,+0.0,+0.0
# iter:  10 16:52:49   -12.289740c  -3.63  -2.98   +1.7,+0.0,+0.0
# iter:  11 16:53:00   -12.291993c  -3.33  -2.98   +1.7,+0.0,+0.0
# iter:  12 16:53:11   -12.294226c  -4.14  -2.87   +1.7,+0.0,+0.0
# iter:  13 16:53:22   -12.294382c  -4.36  -3.42   +1.7,+0.0,+0.0
# iter:  14 16:53:32   -12.294413c  -4.81  -3.62   +1.7,+0.0,+0.0
# iter:  15 16:53:43   -12.295162c  -4.63  -3.62   +1.8,+0.0,+0.0
# iter:  16 16:53:54   -12.295348c  -5.24  -3.59   +1.8,+0.0,+0.0
# iter:  17 16:54:05   -12.294981c  -5.33  -3.60   +1.8,+0.0,+0.0
# iter:  18 16:54:15   -12.295219c  -5.47  -3.67   +1.8,+0.0,+0.0
# iter:  19 16:54:26   -12.295133c  -5.35  -3.57   +1.8,+0.0,+0.0
# iter:  20 16:54:37   -12.295238c  -6.13  -3.69   +1.8,+0.0,-0.0
# iter:  21 16:54:48   -12.295452c  -5.99  -3.68   +1.8,+0.0,-0.0
# iter:  22 16:54:59   -12.295461c  -6.51  -3.71   +1.8,+0.0,+0.0
# iter:  23 16:55:09   -12.295531c  -6.50  -3.71   +1.8,+0.0,+0.0
# iter:  24 16:55:20   -12.295590c  -6.86  -3.70   +1.8,+0.0,+0.0
# iter:  25 16:55:31   -12.295528c  -7.20  -3.72   +1.8,+0.0,-0.0
# iter:  26 16:55:42   -12.295417c  -7.01  -3.73   +1.8,+0.0,+0.0
# iter:  27 16:55:52   -12.295327c  -7.19  -3.73   +1.8,+0.0,+0.0
# iter:  28 16:56:03   -12.295323c  -7.82c -3.73   +1.8,+0.0,+0.0
# iter:  29 16:56:14   -12.295620c  -6.71  -3.73   +1.8,+0.0,-0.0
# iter:  30 16:56:25   -12.296621c  -5.29  -3.74   +1.8,+0.0,-0.0
# iter:  31 16:56:36   -12.296746c  -5.85  -3.84   +1.8,+0.0,-0.0
# iter:  32 16:56:46   -12.296787c  -6.90  -4.16c  +1.8,+0.0,-0.0
# iter:  33 16:56:57   -12.297138c  -6.14  -4.21c  +1.8,+0.0,-0.0
# iter:  34 16:57:08   -12.297157c  -6.85  -4.40c  +1.8,+0.0,-0.0
# iter:  35 16:57:19   -12.297064c  -7.58c -4.57c  +1.8,+0.0,-0.0
scf_steps: 35
energies:  # eV
  coulomb:          -7.978495
  zero:              0.063153
  xc:              -14.956335
  external:          0.000000
  kinetic:          10.599175
  spinorbit:         0.000000
  entropy:          -0.049127
  total:           -12.321627
  extrapolated:    -12.297064

dipole moment: [-4.140877, -7.171943, -4.539904]  # |e|*Ang

total magnetic moment: [1.786970, 0.014399, -0.000000]

local magnetic moments: [
  [ 1.144992, -0.000000, -0.000000],  # Ni 0
  [ 0.170000, -0.052440,  0.000000],  # I  1
  [ 0.170001, -0.052436,  0.000000]]  # I  2


Fermi level: 0.334 eV

kpt = [-0.455, -0.455, 0.000], weight = 0.008:
  Band      eig [eV]   occ [0-1]
     0       -63.456       1.000
   ...
    22        -1.619       1.000
    23        -1.482       1.000
    24        -1.391       1.000
    25        -0.777       1.000
    26        -0.643       1.000
    27        -0.614       1.000
    28        -0.101       0.987
    29        -0.086       0.985
    30         0.840       0.006
    31         0.848       0.006
    32         3.132       0.000
    33         3.638       0.000
    34         5.232       0.000
    35         5.986       0.000
    36         6.088       0.000
    37         6.255       0.000
   ...
    39         6.735       0.000

kpt = [-0.455, -0.364, 0.000], weight = 0.008:
  Band      eig [eV]   occ [0-1]
     0       -63.456       1.000
   ...
    22        -1.551       1.000
    23        -1.427       1.000
    24        -1.282       1.000
    25        -0.738       1.000
    26        -0.624       1.000
    27        -0.539       1.000
    28        -0.361       0.999
    29        -0.138       0.991
    30         0.606       0.062
    31         0.804       0.009
    32         3.600       0.000
    33         4.071       0.000
    34         5.921       0.000
    35         6.114       0.000
    36         6.370       0.000
    37         6.436       0.000
   ...
    39         6.948       0.000

kpt = [-0.455, -0.273, 0.000], weight = 0.008:
  Band      eig [eV]   occ [0-1]
     0       -63.456       1.000
   ...
    22        -1.533       1.000
    23        -1.399       1.000
    24        -1.218       1.000
    25        -0.731       1.000
    26        -0.619       1.000
    27        -0.553       1.000
    28        -0.441       1.000
    29        -0.159       0.993
    30         0.483       0.183
    31         0.782       0.011
    32         4.001       0.000
    33         4.214       0.000
    34         5.872       0.000
    35         6.089       0.000
    36         6.732       0.000
    37         6.809       0.000
   ...
    39         7.296       0.000
(only showing first 3 out of 121 k-points)

No gap
# Writing to gsq-28.gpw (mode='')

---

timing:  # [seconds]
  Total: 387.414  # ━━━━━━━━━━━━━━━━━━━━━━━━━━━━━━━━━━━━━━━━━━━━━━━━━━━━━━━━━
  Init:    7.576  # ━
  SCF:   379.333  # ━━━━━━━━━━━━━━━━━━━━━━━━━━━━━━━━━━━━━━━━━━━━━━━━━━━━━━━━

Max RSS: 817.230  # MiB
