#  __  _  _
# | _ |_)|_||  |
# |__||  | ||/\| - 24.1.0

User:   s194099@n-62-29-14
Date:   Wed Apr 17 16:28:50 2024
Arch:   x86_64
Pid:    32167
CWD:    /zhome/84/5/147090/10302_NM/NiI2
Python: 3.8.5
gpaw:   /zhome/84/5/147090/venv1/gpaw/gpaw (10808453a8)
_gpaw:  /zhome/84/5/147090/venv1/gpaw/
        _gpaw.cpython-38-x86_64-linux-gnu.so (10808453a8)
ase:    /zhome/84/5/147090/venv1/ase/ase (version 3.23.0b1-c36115a2db)
numpy:  /zhome/84/5/147090/venv1/lib/python3.8/site-packages/numpy (version 1.24.4)
scipy:  /zhome/84/5/147090/venv1/lib/python3.8/site-packages/scipy (version 1.10.1)
libxc:  4.3.4
units:  Angstrom and eV
cores: 12
OpenMP: False
OMP_NUM_THREADS: 1

---
input parameters:
  kpts: 
    density: 6.0
    gamma: True
  magmoms: [[1, 0, 0], [0, 0, 0], [0, 0, 0]]
  mixer: 
    backend: 'pulay'
    beta: 0.05
    method: 'sum'
    nmaxold: 5
    weight: 100
  mode: 
    name: 'pw'
    ecut: 600
    qspiral: array([0.14285714, 0.14285714, 0.        ])
  parallel: 
    kpt: None
    domain: 1
    band: 1
    order: 'kdb'
    stridebands: False
    augment_grids: False
    sl_auto: False
    sl_default: None
    sl_diagonalize: None
    sl_inverse_cholesky: None
    sl_lcao: None
    sl_lrtddft: None
    use_elpa: False
    elpasolver: '2stage'
    buffer_size: None
    gpu: False
  symmetry: 
    point_group: False
    time_reversal: False
  xc: 
    name: 'LDA'

#                        
#                        
#                        
#                        
#                        
#              I         
#                        
#        Ni              
#          I             
#                        
#                        
#                        
#                        
#                        

atoms: [  # symbols, positions [Ang] and initial magnetic moments
  [ Ni, [   0.000000,    0.000000,    5.513573], [ 1.000,  0.000,  0.000]], # 0
  [  I, [   1.984831,    1.145943,    7.027147], [ 0.000,  0.000,  0.000]], # 1
  [  I, [  -0.000000,    2.291886,    4.000000], [ 0.000,  0.000,  0.000]]] # 2

cell: [  # Ang
#     x            y            z
  [   3.969662,    0.000000,    0.000000],
  [  -1.984831,    3.437828,    0.000000],
  [   0.000000,   -0.000000,   11.027147]]

periodic: [True      , True      , False     ]
lengths:  [  3.969662,   3.969662,  11.027147]  # Ang
angles:   [ 90.000000,  90.000000, 120.000000]

symmetry:
  number of symmetries: 1
  rotations: [
    [[ 1,  0,  0], [ 0,  1,  0], [ 0,  0,  1]]]

bz sampling:
  number of bz points: 121
  number of ibz points: 121
  monkhorst-pack size: [11, 11, 1]
  monkhorst-pack shift: [0, 0, 0]
  points and weights: [
    [[ -0.45454545,  -0.45454545,   0.00000000], 0.00826446],  # 0
    [[ -0.45454545,  -0.36363636,   0.00000000], 0.00826446],  # 1
    [[ -0.45454545,  -0.27272727,   0.00000000], 0.00826446],  # 2
    [[ -0.45454545,  -0.18181818,   0.00000000], 0.00826446],  # 3
    [[ -0.45454545,  -0.09090909,   0.00000000], 0.00826446],  # 4
    [[ -0.45454545,   0.00000000,   0.00000000], 0.00826446],  # 5
    [[ -0.45454545,   0.09090909,   0.00000000], 0.00826446],  # 6
    [[ -0.45454545,   0.18181818,   0.00000000], 0.00826446],  # 7
    [[ -0.45454545,   0.27272727,   0.00000000], 0.00826446],  # 8
    [[ -0.45454545,   0.36363636,   0.00000000], 0.00826446],  # 9
    # ...
    [[  0.45454545,   0.45454545,   0.00000000], 0.00826446]]  # 120

plane wave coefficients: 5038
cutoff: 600.0 eV

spin-components: 4  # (non-collinear spins)
bands: 40
valence electrons: 30.0
spin-degeneracy: 1
dtype: complex128

memory:
    wave functions: 778_736_640  # bytes  (64_894_720 per core)

parallelization:
    kpt:    12
    domain: 1
    band:   1

density:
  components: 4
  grid points: [24 24 63]
  charge: 0.0  # |e|

potential:
  grid points: [24 24 63]

species:
  Ni:
    name: Nickel
    id: 1802175e8de9ea26d9f4394ec1a7d564
    Z: 28.0
    valence: 16
    core: 12
    charge: 0.0
    file: /zhome/86/d/1666/PAW/gpaw-setups-0.9.20000/Ni.LDA.gz
    compensation charges: {type: gauss,
                           rc: 0.36,
                           lmax: 2}
    cutoffs: {filter: 2.14,
              core: 1.98}
    valence states:
      #              energy  rcut
      - 4s(2.00)    -5.858   1.164
      - 3p(6.00)   -71.266   1.207
      - 4p(0.00)    -1.338   1.207
      - 3d(8.00)    -9.141   1.138
      -  s          21.353   1.164
      -  d          18.071   1.138
  
    # Using partial waves for Ni as LCAO basis

  I:
    name: Iodine
    id: b559721c0c096a7b4c8fc0e0f4de5cf4
    Z: 53.0
    valence: 7
    core: 46
    charge: 0.0
    file: /zhome/86/d/1666/PAW/gpaw-setups-0.9.20000/I.LDA.gz
    compensation charges: {type: gauss,
                           rc: 0.37,
                           lmax: 2}
    cutoffs: {filter: 2.06,
              core: 2.90}
    valence states:
      #              energy  rcut
      - 5s(2.00)   -17.626   1.164
      - 5p(5.00)    -7.241   1.164
      -  s           9.585   1.164
      -  p          19.970   1.164
      -  d           0.000   1.164
  
    # Using partial waves for I as LCAO basis

Reference energy: -428067.566327  # eV

eigensolver:
  name: 'Davidson'
  niter: 2
  converge_bands: 'occupied'
Density mixing:
  Method: sum
  Backend: pulay
  Linear mixing parameter: 0.05
  old densities: 5
  Damping of long wavelength oscillations: 100
occupation numbers:
  Fermi-Dirac:
    width: 0.1000  # eV
  

poisson solver:
  ecut: 4800.0  # eV

xc functional:
  name: None

convergence criteria:
- Maximum [total energy] change in last 3 cyles: 0.0005 eV / valence electron
- Maximum integral of absolute [dens]ity change: 0.0001 electrons / valence electron
- Maximum integral of absolute [eigenst]ate change: 4e-08 eV^2 / valence electron
maximum number of iterations: 333

#      iter     time        total  log10-change:
#                          energy   eigst   dens
# iter:   1 16:29:08   -13.767743                  +1.0,+0.0,+0.0
# iter:   2 16:29:19   -12.681641   -0.21  -1.31   +1.0,+0.0,+0.0
# iter:   3 16:29:30   -12.242846   -0.64  -1.45   +1.1,+0.0,-0.0
# iter:   4 16:29:41   -12.312772   -1.45  -1.68   +1.2,+0.0,+0.0
# iter:   5 16:29:52   -12.533655   -1.63  -1.66   +1.3,+0.0,+0.0
# iter:   6 16:30:03   -12.326179   -1.93  -1.77   +1.4,+0.0,-0.0
# iter:   7 16:30:14   -12.314642   -2.42  -2.15   +1.4,+0.0,-0.0
# iter:   8 16:30:25   -12.308856   -2.64  -2.31   +1.5,+0.0,-0.0
# iter:   9 16:30:36   -12.310970c  -2.99  -2.78   +1.5,+0.0,+0.0
# iter:  10 16:30:47   -12.312205c  -3.37  -2.98   +1.5,+0.0,+0.0
# iter:  11 16:30:58   -12.314088c  -3.44  -3.11   +1.5,+0.0,-0.0
# iter:  12 16:31:09   -12.314629c  -3.83  -3.45   +1.5,+0.0,-0.0
# iter:  13 16:31:20   -12.314753c  -4.03  -3.74   +1.5,+0.0,+0.0
# iter:  14 16:31:31   -12.314827c  -4.21  -3.78   +1.5,+0.0,+0.0
# iter:  15 16:31:42   -12.315041c  -4.39  -3.82   +1.5,+0.0,+0.0
# iter:  16 16:31:53   -12.315088c  -4.57  -3.84   +1.5,+0.0,+0.0
# iter:  17 16:32:04   -12.315134c  -4.74  -3.84   +1.5,+0.0,+0.0
# iter:  18 16:32:15   -12.315106c  -4.91  -3.83   +1.5,+0.0,+0.0
# iter:  19 16:32:26   -12.315283c  -5.07  -3.85   +1.5,+0.0,+0.0
# iter:  20 16:32:36   -12.316127c  -4.92  -3.88   +1.6,+0.0,+0.0
# iter:  21 16:32:47   -12.316283c  -5.36  -4.33c  +1.6,+0.0,+0.0
# iter:  22 16:32:58   -12.316399c  -5.57  -4.67c  +1.6,+0.0,+0.0
# iter:  23 16:33:09   -12.316384c  -5.77  -4.81c  +1.6,+0.0,+0.0
# iter:  24 16:33:20   -12.316406c  -5.95  -4.86c  +1.6,+0.0,+0.0
# iter:  25 16:33:31   -12.316407c  -6.13  -4.91c  +1.6,+0.0,+0.0
# iter:  26 16:33:42   -12.316402c  -6.32  -5.01c  +1.6,+0.0,+0.0
# iter:  27 16:33:53   -12.316387c  -6.51  -5.11c  +1.6,+0.0,+0.0
# iter:  28 16:34:04   -12.316386c  -6.68  -5.21c  +1.6,+0.0,+0.0
# iter:  29 16:34:14   -12.316388c  -6.86  -5.28c  +1.6,+0.0,+0.0
# iter:  30 16:34:25   -12.316389c  -7.06  -5.38c  +1.6,+0.0,+0.0
# iter:  31 16:34:36   -12.316395c  -7.25  -5.46c  +1.6,+0.0,+0.0
# iter:  32 16:34:47   -12.316404c  -7.44c -5.68c  +1.6,+0.0,+0.0
scf_steps: 32
energies:  # eV
  coulomb:          -7.671730
  zero:              0.066586
  xc:              -14.904365
  external:          0.000000
  kinetic:          10.211225
  spinorbit:         0.000000
  entropy:          -0.036239
  total:           -12.334524
  extrapolated:    -12.316404

dipole moment: [-3.916446, -6.782789, -3.242354]  # |e|*Ang

total magnetic moment: [1.562659, 0.028486, 0.000000]

local magnetic moments: [
  [ 1.131190, -0.000000,  0.000000],  # Ni 0
  [ 0.083336, -0.104470,  0.000000],  # I  1
  [ 0.083307, -0.104493,  0.000000]]  # I  2


Fermi level: 0.336 eV

kpt = [-0.455, -0.455, 0.000], weight = 0.008:
  Band      eig [eV]   occ [0-1]
     0       -63.437       1.000
   ...
    22        -1.558       1.000
    23        -1.418       1.000
    24        -1.355       1.000
    25        -0.778       1.000
    26        -0.628       1.000
    27        -0.601       1.000
    28        -0.212       0.996
    29        -0.132       0.991
    30         0.768       0.013
    31         0.781       0.011
    32         3.171       0.000
    33         4.029       0.000
    34         5.273       0.000
    35         6.117       0.000
    36         6.268       0.000
    37         6.333       0.000
   ...
    39         7.312       0.000

kpt = [-0.455, -0.364, 0.000], weight = 0.008:
  Band      eig [eV]   occ [0-1]
     0       -63.437       1.000
   ...
    22        -1.523       1.000
    23        -1.408       1.000
    24        -1.343       1.000
    25        -0.830       1.000
    26        -0.626       1.000
    27        -0.606       1.000
    28        -0.225       0.996
    29        -0.099       0.987
    30         0.707       0.024
    31         0.812       0.008
    32         3.168       0.000
    33         4.109       0.000
    34         5.229       0.000
    35         6.026       0.000
    36         6.261       0.000
    37         6.381       0.000
   ...
    39         7.365       0.000

kpt = [-0.455, -0.273, 0.000], weight = 0.008:
  Band      eig [eV]   occ [0-1]
     0       -63.437       1.000
   ...
    22        -1.462       1.000
    23        -1.396       1.000
    24        -1.253       1.000
    25        -0.837       1.000
    26        -0.626       1.000
    27        -0.601       1.000
    28        -0.253       0.997
    29        -0.075       0.984
    30         0.597       0.068
    31         0.780       0.012
    32         3.680       0.000
    33         3.947       0.000
    34         5.849       0.000
    35         6.240       0.000
    36         6.292       0.000
    37         6.471       0.000
   ...
    39         7.047       0.000
(only showing first 3 out of 121 k-points)

Gap: 0.295 eV
Transition (v -> c):
  (s=0, k=60, n=29, [0.00, 0.00, 0.00]) -> (s=0, k=24, n=30, [-0.27, -0.27, 0.00])
# Writing to gsq-24.gpw (mode='')

---

timing:  # [seconds]
  Total: 357.555  # ━━━━━━━━━━━━━━━━━━━━━━━━━━━━━━━━━━━━━━━━━━━━━━━━━━━━━━━━━
  Init:    7.620  # ━
  SCF:   349.426  # ━━━━━━━━━━━━━━━━━━━━━━━━━━━━━━━━━━━━━━━━━━━━━━━━━━━━━━━╸

Max RSS: 817.230  # MiB
