#  __  _  _
# | _ |_)|_||  |
# |__||  | ||/\| - 24.1.0

User:   s194099@n-62-29-14
Date:   Wed Apr 17 14:30:56 2024
Arch:   x86_64
Pid:    32167
CWD:    /zhome/84/5/147090/10302_NM/NiI2
Python: 3.8.5
gpaw:   /zhome/84/5/147090/venv1/gpaw/gpaw (10808453a8)
_gpaw:  /zhome/84/5/147090/venv1/gpaw/
        _gpaw.cpython-38-x86_64-linux-gnu.so (10808453a8)
ase:    /zhome/84/5/147090/venv1/ase/ase (version 3.23.0b1-c36115a2db)
numpy:  /zhome/84/5/147090/venv1/lib/python3.8/site-packages/numpy (version 1.24.4)
scipy:  /zhome/84/5/147090/venv1/lib/python3.8/site-packages/scipy (version 1.10.1)
libxc:  4.3.4
units:  Angstrom and eV
cores: 12
OpenMP: False
OMP_NUM_THREADS: 1

---
input parameters:
  kpts: 
    density: 6.0
    gamma: True
  magmoms: [[1, 0, 0], [0, 0, 0], [0, 0, 0]]
  mixer: 
    backend: 'pulay'
    beta: 0.05
    method: 'sum'
    nmaxold: 5
    weight: 100
  mode: 
    name: 'pw'
    ecut: 600
    qspiral: array([0.4, 0. , 0. ])
  parallel: 
    kpt: None
    domain: 1
    band: 1
    order: 'kdb'
    stridebands: False
    augment_grids: False
    sl_auto: False
    sl_default: None
    sl_diagonalize: None
    sl_inverse_cholesky: None
    sl_lcao: None
    sl_lrtddft: None
    use_elpa: False
    elpasolver: '2stage'
    buffer_size: None
    gpu: False
  symmetry: 
    point_group: False
    time_reversal: False
  xc: 
    name: 'LDA'

#                        
#                        
#                        
#                        
#                        
#              I         
#                        
#        Ni              
#          I             
#                        
#                        
#                        
#                        
#                        

atoms: [  # symbols, positions [Ang] and initial magnetic moments
  [ Ni, [   0.000000,    0.000000,    5.513573], [ 1.000,  0.000,  0.000]], # 0
  [  I, [   1.984831,    1.145943,    7.027147], [ 0.000,  0.000,  0.000]], # 1
  [  I, [  -0.000000,    2.291886,    4.000000], [ 0.000,  0.000,  0.000]]] # 2

cell: [  # Ang
#     x            y            z
  [   3.969662,    0.000000,    0.000000],
  [  -1.984831,    3.437828,    0.000000],
  [   0.000000,   -0.000000,   11.027147]]

periodic: [True      , True      , False     ]
lengths:  [  3.969662,   3.969662,  11.027147]  # Ang
angles:   [ 90.000000,  90.000000, 120.000000]

symmetry:
  number of symmetries: 1
  rotations: [
    [[ 1,  0,  0], [ 0,  1,  0], [ 0,  0,  1]]]

bz sampling:
  number of bz points: 121
  number of ibz points: 121
  monkhorst-pack size: [11, 11, 1]
  monkhorst-pack shift: [0, 0, 0]
  points and weights: [
    [[ -0.45454545,  -0.45454545,   0.00000000], 0.00826446],  # 0
    [[ -0.45454545,  -0.36363636,   0.00000000], 0.00826446],  # 1
    [[ -0.45454545,  -0.27272727,   0.00000000], 0.00826446],  # 2
    [[ -0.45454545,  -0.18181818,   0.00000000], 0.00826446],  # 3
    [[ -0.45454545,  -0.09090909,   0.00000000], 0.00826446],  # 4
    [[ -0.45454545,   0.00000000,   0.00000000], 0.00826446],  # 5
    [[ -0.45454545,   0.09090909,   0.00000000], 0.00826446],  # 6
    [[ -0.45454545,   0.18181818,   0.00000000], 0.00826446],  # 7
    [[ -0.45454545,   0.27272727,   0.00000000], 0.00826446],  # 8
    [[ -0.45454545,   0.36363636,   0.00000000], 0.00826446],  # 9
    # ...
    [[  0.45454545,   0.45454545,   0.00000000], 0.00826446]]  # 120

plane wave coefficients: 5038
cutoff: 600.0 eV

spin-components: 4  # (non-collinear spins)
bands: 40
valence electrons: 30.0
spin-degeneracy: 1
dtype: complex128

memory:
    wave functions: 778_736_640  # bytes  (64_894_720 per core)

parallelization:
    kpt:    12
    domain: 1
    band:   1

density:
  components: 4
  grid points: [24 24 63]
  charge: 0.0  # |e|

potential:
  grid points: [24 24 63]

species:
  Ni:
    name: Nickel
    id: 1802175e8de9ea26d9f4394ec1a7d564
    Z: 28.0
    valence: 16
    core: 12
    charge: 0.0
    file: /zhome/86/d/1666/PAW/gpaw-setups-0.9.20000/Ni.LDA.gz
    compensation charges: {type: gauss,
                           rc: 0.36,
                           lmax: 2}
    cutoffs: {filter: 2.14,
              core: 1.98}
    valence states:
      #              energy  rcut
      - 4s(2.00)    -5.858   1.164
      - 3p(6.00)   -71.266   1.207
      - 4p(0.00)    -1.338   1.207
      - 3d(8.00)    -9.141   1.138
      -  s          21.353   1.164
      -  d          18.071   1.138
  
    # Using partial waves for Ni as LCAO basis

  I:
    name: Iodine
    id: b559721c0c096a7b4c8fc0e0f4de5cf4
    Z: 53.0
    valence: 7
    core: 46
    charge: 0.0
    file: /zhome/86/d/1666/PAW/gpaw-setups-0.9.20000/I.LDA.gz
    compensation charges: {type: gauss,
                           rc: 0.37,
                           lmax: 2}
    cutoffs: {filter: 2.06,
              core: 2.90}
    valence states:
      #              energy  rcut
      - 5s(2.00)   -17.626   1.164
      - 5p(5.00)    -7.241   1.164
      -  s           9.585   1.164
      -  p          19.970   1.164
      -  d           0.000   1.164
  
    # Using partial waves for I as LCAO basis

Reference energy: -428067.566327  # eV

eigensolver:
  name: 'Davidson'
  niter: 2
  converge_bands: 'occupied'
Density mixing:
  Method: sum
  Backend: pulay
  Linear mixing parameter: 0.05
  old densities: 5
  Damping of long wavelength oscillations: 100
occupation numbers:
  Fermi-Dirac:
    width: 0.1000  # eV
  

poisson solver:
  ecut: 4800.0  # eV

xc functional:
  name: None

convergence criteria:
- Maximum [total energy] change in last 3 cyles: 0.0005 eV / valence electron
- Maximum integral of absolute [dens]ity change: 0.0001 electrons / valence electron
- Maximum integral of absolute [eigenst]ate change: 4e-08 eV^2 / valence electron
maximum number of iterations: 333

#      iter     time        total  log10-change:
#                          energy   eigst   dens
# iter:   1 14:31:14   -13.379446                  +1.0,+0.0,+0.0
# iter:   2 14:31:25   -12.584372   +0.12  -1.31   +0.8,+0.0,+0.0
# iter:   3 14:31:36   -12.190309   -0.46  -1.45   +0.8,+0.0,+0.0
# iter:   4 14:31:47   -12.247933   -1.18  -1.68   +1.0,+0.0,+0.0
# iter:   5 14:31:58   -12.576424   -1.32  -1.66   +1.0,+0.0,-0.0
# iter:   6 14:32:09   -12.256259   -1.59  -1.68   +1.0,+0.0,+0.0
# iter:   7 14:32:20   -12.250210   -2.02  -2.18   +1.0,+0.0,-0.0
# iter:   8 14:32:30   -12.251778c  -2.30  -2.35   +1.1,+0.0,-0.0
# iter:   9 14:32:41   -12.253990c  -2.47  -2.59   +1.1,+0.0,-0.0
# iter:  10 14:32:52   -12.253925c  -2.75  -3.00   +1.1,+0.0,-0.0
# iter:  11 14:33:03   -12.261711c  -2.92  -2.94   +1.2,+0.0,+0.0
# iter:  12 14:33:14   -12.262193c  -3.01  -3.11   +1.2,+0.0,+0.0
# iter:  13 14:33:25   -12.262573c  -3.30  -3.35   +1.2,+0.0,+0.0
# iter:  14 14:33:36   -12.262864c  -3.47  -3.56   +1.2,+0.0,+0.0
# iter:  15 14:33:46   -12.265127c  -3.58  -3.65   +1.3,+0.0,+0.0
# iter:  16 14:33:57   -12.266291c  -3.80  -3.52   +1.3,+0.0,+0.0
# iter:  17 14:34:08   -12.266477c  -3.98  -4.00   +1.3,+0.0,+0.0
# iter:  18 14:34:19   -12.266569c  -4.15  -4.10c  +1.3,+0.0,+0.0
# iter:  19 14:34:30   -12.266518c  -4.33  -4.24c  +1.3,+0.0,+0.0
# iter:  20 14:34:40   -12.266753c  -4.50  -4.14c  +1.3,+0.0,+0.0
# iter:  21 14:34:51   -12.266708c  -4.68  -4.31c  +1.3,+0.0,+0.0
# iter:  22 14:35:02   -12.266977c  -4.86  -4.29c  +1.3,+0.0,+0.0
# iter:  23 14:35:13   -12.266979c  -5.04  -4.36c  +1.3,+0.0,-0.0
# iter:  24 14:35:23   -12.266894c  -5.21  -4.36c  +1.3,+0.0,-0.0
# iter:  25 14:35:34   -12.266825c  -5.40  -4.57c  +1.3,+0.0,+0.0
# iter:  26 14:35:45   -12.266806c  -5.60  -4.69c  +1.3,+0.0,+0.0
# iter:  27 14:35:56   -12.266876c  -5.78  -4.77c  +1.3,+0.0,+0.0
# iter:  28 14:36:06   -12.266869c  -5.97  -5.07c  +1.3,+0.0,+0.0
# iter:  29 14:36:17   -12.266891c  -6.15  -5.17c  +1.3,+0.0,+0.0
# iter:  30 14:36:28   -12.266896c  -6.34  -5.23c  +1.3,+0.0,-0.0
# iter:  31 14:36:39   -12.266874c  -6.53  -5.23c  +1.3,+0.0,-0.0
# iter:  32 14:36:49   -12.266866c  -6.71  -5.28c  +1.3,+0.0,-0.0
# iter:  33 14:37:00   -12.266864c  -6.88  -5.68c  +1.3,+0.0,+0.0
# iter:  34 14:37:11   -12.266865c  -7.06  -5.93c  +1.3,+0.0,+0.0
# iter:  35 14:37:21   -12.266867c  -7.24  -5.97c  +1.3,+0.0,+0.0
# iter:  36 14:37:32   -12.266868c  -7.43c -6.13c  +1.3,+0.0,-0.0
scf_steps: 36
energies:  # eV
  coulomb:          -7.956059
  zero:              0.066326
  xc:              -14.910073
  external:          0.000000
  kinetic:          10.563374
  spinorbit:         0.000000
  entropy:          -0.060872
  total:           -12.297304
  extrapolated:    -12.266868

dipole moment: [-3.589096, -6.323741, -1.431292]  # |e|*Ang

total magnetic moment: [1.283209, 0.013676, -0.000000]

local magnetic moments: [
  [ 1.114098,  0.000000, -0.000000],  # Ni 0
  [-0.035762, -0.067533, -0.000000],  # I  1
  [ 0.068627, -0.033615, -0.000000]]  # I  2


Fermi level: 0.328 eV

kpt = [-0.455, -0.455, 0.000], weight = 0.008:
  Band      eig [eV]   occ [0-1]
     0       -63.432       1.000
   ...
    22        -1.481       1.000
    23        -1.433       1.000
    24        -1.197       1.000
    25        -0.774       1.000
    26        -0.660       1.000
    27        -0.572       1.000
    28        -0.328       0.999
    29        -0.063       0.981
    30         0.557       0.092
    31         0.789       0.010
    32         3.606       0.000
    33         4.141       0.000
    34         5.705       0.000
    35         5.932       0.000
    36         6.178       0.000
    37         6.450       0.000
   ...
    39         7.132       0.000

kpt = [-0.455, -0.364, 0.000], weight = 0.008:
  Band      eig [eV]   occ [0-1]
     0       -63.432       1.000
   ...
    22        -1.473       1.000
    23        -1.364       1.000
    24        -1.243       1.000
    25        -0.874       1.000
    26        -0.599       1.000
    27        -0.595       1.000
    28        -0.246       0.997
    29        -0.040       0.975
    30         0.577       0.077
    31         0.832       0.006
    32         3.450       0.000
    33         4.068       0.000
    34         5.273       0.000
    35         6.014       0.000
    36         6.307       0.000
    37         6.349       0.000
   ...
    39         7.172       0.000

kpt = [-0.455, -0.273, 0.000], weight = 0.008:
  Band      eig [eV]   occ [0-1]
     0       -63.433       1.000
   ...
    22        -1.423       1.000
    23        -1.319       1.000
    24        -1.172       1.000
    25        -0.879       1.000
    26        -0.597       1.000
    27        -0.536       1.000
    28        -0.299       0.998
    29        -0.014       0.968
    30         0.486       0.172
    31         0.811       0.008
    32         3.868       0.000
    33         4.173       0.000
    34         5.398       0.000
    35         5.861       0.000
    36         6.074       0.000
    37         6.344       0.000
   ...
    39         7.121       0.000
(only showing first 3 out of 121 k-points)

No gap
# Writing to gsq-08.gpw (mode='')

---

timing:  # [seconds]
  Total: 397.056  # ━━━━━━━━━━━━━━━━━━━━━━━━━━━━━━━━━━━━━━━━━━━━━━━━━━━━━━━━━
  Init:    7.593  # ━
  SCF:   388.977  # ━━━━━━━━━━━━━━━━━━━━━━━━━━━━━━━━━━━━━━━━━━━━━━━━━━━━━━━━

Max RSS: 514.465  # MiB
