#  __  _  _
# | _ |_)|_||  |
# |__||  | ||/\| - 24.1.0

User:   s194099@n-62-29-14
Date:   Wed Apr 17 14:12:06 2024
Arch:   x86_64
Pid:    32167
CWD:    /zhome/84/5/147090/10302_NM/NiI2
Python: 3.8.5
gpaw:   /zhome/84/5/147090/venv1/gpaw/gpaw (10808453a8)
_gpaw:  /zhome/84/5/147090/venv1/gpaw/
        _gpaw.cpython-38-x86_64-linux-gnu.so (10808453a8)
ase:    /zhome/84/5/147090/venv1/ase/ase (version 3.23.0b1-c36115a2db)
numpy:  /zhome/84/5/147090/venv1/lib/python3.8/site-packages/numpy (version 1.24.4)
scipy:  /zhome/84/5/147090/venv1/lib/python3.8/site-packages/scipy (version 1.10.1)
libxc:  4.3.4
units:  Angstrom and eV
cores: 12
OpenMP: False
OMP_NUM_THREADS: 1

---
input parameters:
  kpts: 
    density: 6.0
    gamma: True
  magmoms: [[1, 0, 0], [0, 0, 0], [0, 0, 0]]
  mixer: 
    backend: 'pulay'
    beta: 0.05
    method: 'sum'
    nmaxold: 5
    weight: 100
  mode: 
    name: 'pw'
    ecut: 600
    qspiral: array([0.25, 0.  , 0.  ])
  parallel: 
    kpt: None
    domain: 1
    band: 1
    order: 'kdb'
    stridebands: False
    augment_grids: False
    sl_auto: False
    sl_default: None
    sl_diagonalize: None
    sl_inverse_cholesky: None
    sl_lcao: None
    sl_lrtddft: None
    use_elpa: False
    elpasolver: '2stage'
    buffer_size: None
    gpu: False
  symmetry: 
    point_group: False
    time_reversal: False
  xc: 
    name: 'LDA'

#                        
#                        
#                        
#                        
#                        
#              I         
#                        
#        Ni              
#          I             
#                        
#                        
#                        
#                        
#                        

atoms: [  # symbols, positions [Ang] and initial magnetic moments
  [ Ni, [   0.000000,    0.000000,    5.513573], [ 1.000,  0.000,  0.000]], # 0
  [  I, [   1.984831,    1.145943,    7.027147], [ 0.000,  0.000,  0.000]], # 1
  [  I, [  -0.000000,    2.291886,    4.000000], [ 0.000,  0.000,  0.000]]] # 2

cell: [  # Ang
#     x            y            z
  [   3.969662,    0.000000,    0.000000],
  [  -1.984831,    3.437828,    0.000000],
  [   0.000000,   -0.000000,   11.027147]]

periodic: [True      , True      , False     ]
lengths:  [  3.969662,   3.969662,  11.027147]  # Ang
angles:   [ 90.000000,  90.000000, 120.000000]

symmetry:
  number of symmetries: 1
  rotations: [
    [[ 1,  0,  0], [ 0,  1,  0], [ 0,  0,  1]]]

bz sampling:
  number of bz points: 121
  number of ibz points: 121
  monkhorst-pack size: [11, 11, 1]
  monkhorst-pack shift: [0, 0, 0]
  points and weights: [
    [[ -0.45454545,  -0.45454545,   0.00000000], 0.00826446],  # 0
    [[ -0.45454545,  -0.36363636,   0.00000000], 0.00826446],  # 1
    [[ -0.45454545,  -0.27272727,   0.00000000], 0.00826446],  # 2
    [[ -0.45454545,  -0.18181818,   0.00000000], 0.00826446],  # 3
    [[ -0.45454545,  -0.09090909,   0.00000000], 0.00826446],  # 4
    [[ -0.45454545,   0.00000000,   0.00000000], 0.00826446],  # 5
    [[ -0.45454545,   0.09090909,   0.00000000], 0.00826446],  # 6
    [[ -0.45454545,   0.18181818,   0.00000000], 0.00826446],  # 7
    [[ -0.45454545,   0.27272727,   0.00000000], 0.00826446],  # 8
    [[ -0.45454545,   0.36363636,   0.00000000], 0.00826446],  # 9
    # ...
    [[  0.45454545,   0.45454545,   0.00000000], 0.00826446]]  # 120

plane wave coefficients: 5038
cutoff: 600.0 eV

spin-components: 4  # (non-collinear spins)
bands: 40
valence electrons: 30.0
spin-degeneracy: 1
dtype: complex128

memory:
    wave functions: 778_736_640  # bytes  (64_894_720 per core)

parallelization:
    kpt:    12
    domain: 1
    band:   1

density:
  components: 4
  grid points: [24 24 63]
  charge: 0.0  # |e|

potential:
  grid points: [24 24 63]

species:
  Ni:
    name: Nickel
    id: 1802175e8de9ea26d9f4394ec1a7d564
    Z: 28.0
    valence: 16
    core: 12
    charge: 0.0
    file: /zhome/86/d/1666/PAW/gpaw-setups-0.9.20000/Ni.LDA.gz
    compensation charges: {type: gauss,
                           rc: 0.36,
                           lmax: 2}
    cutoffs: {filter: 2.14,
              core: 1.98}
    valence states:
      #              energy  rcut
      - 4s(2.00)    -5.858   1.164
      - 3p(6.00)   -71.266   1.207
      - 4p(0.00)    -1.338   1.207
      - 3d(8.00)    -9.141   1.138
      -  s          21.353   1.164
      -  d          18.071   1.138
  
    # Using partial waves for Ni as LCAO basis

  I:
    name: Iodine
    id: b559721c0c096a7b4c8fc0e0f4de5cf4
    Z: 53.0
    valence: 7
    core: 46
    charge: 0.0
    file: /zhome/86/d/1666/PAW/gpaw-setups-0.9.20000/I.LDA.gz
    compensation charges: {type: gauss,
                           rc: 0.37,
                           lmax: 2}
    cutoffs: {filter: 2.06,
              core: 2.90}
    valence states:
      #              energy  rcut
      - 5s(2.00)   -17.626   1.164
      - 5p(5.00)    -7.241   1.164
      -  s           9.585   1.164
      -  p          19.970   1.164
      -  d           0.000   1.164
  
    # Using partial waves for I as LCAO basis

Reference energy: -428067.566327  # eV

eigensolver:
  name: 'Davidson'
  niter: 2
  converge_bands: 'occupied'
Density mixing:
  Method: sum
  Backend: pulay
  Linear mixing parameter: 0.05
  old densities: 5
  Damping of long wavelength oscillations: 100
occupation numbers:
  Fermi-Dirac:
    width: 0.1000  # eV
  

poisson solver:
  ecut: 4800.0  # eV

xc functional:
  name: None

convergence criteria:
- Maximum [total energy] change in last 3 cyles: 0.0005 eV / valence electron
- Maximum integral of absolute [dens]ity change: 0.0001 electrons / valence electron
- Maximum integral of absolute [eigenst]ate change: 4e-08 eV^2 / valence electron
maximum number of iterations: 333

#      iter     time        total  log10-change:
#                          energy   eigst   dens
# iter:   1 14:12:24   -13.761278                  +1.0,+0.0,+0.0
# iter:   2 14:12:35   -12.679074   -0.21  -1.31   +1.0,+0.0,-0.0
# iter:   3 14:12:46   -12.239220   -0.63  -1.45   +1.1,+0.0,-0.0
# iter:   4 14:12:58   -12.310895   -1.42  -1.68   +1.2,+0.0,-0.0
# iter:   5 14:13:09   -12.517405   -1.62  -1.66   +1.3,+0.0,+0.0
# iter:   6 14:13:20   -12.323127   -1.92  -1.78   +1.3,+0.0,-0.0
# iter:   7 14:13:31   -12.307440   -2.36  -2.15   +1.4,+0.0,-0.0
# iter:   8 14:13:42   -12.304126   -2.63  -2.33   +1.4,+0.0,+0.0
# iter:   9 14:13:54   -12.306224c  -2.91  -2.72   +1.5,+0.0,+0.0
# iter:  10 14:14:05   -12.307658c  -3.30  -2.98   +1.5,+0.0,+0.0
# iter:  11 14:14:17   -12.308500c  -3.28  -3.02   +1.5,+0.0,-0.0
# iter:  12 14:14:28   -12.310053c  -3.77  -3.07   +1.5,+0.0,+0.0
# iter:  13 14:14:40   -12.310174c  -3.98  -3.59   +1.5,+0.0,+0.0
# iter:  14 14:14:52   -12.310271c  -4.19  -3.74   +1.5,+0.0,+0.0
# iter:  15 14:15:03   -12.311231c  -4.34  -3.79   +1.5,+0.0,+0.0
# iter:  16 14:15:15   -12.311533c  -4.49  -3.90   +1.5,+0.0,-0.0
# iter:  17 14:15:26   -12.311614c  -4.74  -3.97   +1.5,+0.0,-0.0
# iter:  18 14:15:38   -12.311628c  -4.93  -4.21c  +1.5,+0.0,-0.0
# iter:  19 14:15:50   -12.311704c  -5.10  -4.24c  +1.5,+0.0,-0.0
# iter:  20 14:16:01   -12.311666c  -5.29  -4.30c  +1.5,+0.0,-0.0
# iter:  21 14:16:13   -12.311619c  -5.47  -4.34c  +1.5,+0.0,-0.0
# iter:  22 14:16:24   -12.311619c  -5.66  -4.36c  +1.5,+0.0,-0.0
# iter:  23 14:16:35   -12.311617c  -5.84  -4.35c  +1.5,+0.0,-0.0
# iter:  24 14:16:46   -12.311635c  -6.05  -4.33c  +1.5,+0.0,-0.0
# iter:  25 14:16:57   -12.311695c  -6.20  -4.32c  +1.5,+0.0,-0.0
# iter:  26 14:17:08   -12.311701c  -6.42  -4.25c  +1.5,+0.0,-0.0
# iter:  27 14:17:19   -12.311729c  -6.57  -4.31c  +1.5,+0.0,-0.0
# iter:  28 14:17:30   -12.311766c  -6.76  -4.39c  +1.5,+0.0,-0.0
# iter:  29 14:17:40   -12.311929c  -6.29  -4.44c  +1.6,+0.0,-0.0
# iter:  30 14:17:51   -12.311915c  -7.10  -4.86c  +1.6,+0.0,-0.0
# iter:  31 14:18:02   -12.311926c  -7.35  -4.93c  +1.6,+0.0,-0.0
# iter:  32 14:18:13   -12.311951c  -7.42c -4.97c  +1.6,+0.0,-0.0
scf_steps: 32
energies:  # eV
  coulomb:          -7.690039
  zero:              0.066350
  xc:              -14.904995
  external:          0.000000
  kinetic:          10.236367
  spinorbit:         0.000000
  entropy:          -0.039270
  total:           -12.331586
  extrapolated:    -12.311951

dipole moment: [-3.906879, -6.767738, -3.119333]  # |e|*Ang

total magnetic moment: [1.551918, 0.024143, -0.000000]

local magnetic moments: [
  [ 1.128822, -0.000000, -0.000000],  # Ni 0
  [ 0.059219, -0.118263, -0.000000],  # I  1
  [ 0.118263, -0.059219, -0.000000]]  # I  2


Fermi level: 0.345 eV

kpt = [-0.455, -0.455, 0.000], weight = 0.008:
  Band      eig [eV]   occ [0-1]
     0       -63.435       1.000
   ...
    22        -1.541       1.000
    23        -1.452       1.000
    24        -1.309       1.000
    25        -0.769       1.000
    26        -0.644       1.000
    27        -0.577       1.000
    28        -0.244       0.997
    29        -0.077       0.985
    30         0.735       0.020
    31         0.836       0.007
    32         3.186       0.000
    33         4.039       0.000
    34         5.226       0.000
    35         5.995       0.000
    36         6.028       0.000
    37         6.447       0.000
   ...
    39         7.168       0.000

kpt = [-0.455, -0.364, 0.000], weight = 0.008:
  Band      eig [eV]   occ [0-1]
     0       -63.435       1.000
   ...
    22        -1.510       1.000
    23        -1.362       1.000
    24        -1.307       1.000
    25        -0.785       1.000
    26        -0.609       1.000
    27        -0.570       1.000
    28        -0.209       0.996
    29        -0.187       0.995
    30         0.676       0.035
    31         0.775       0.013
    32         3.387       0.000
    33         4.111       0.000
    34         5.372       0.000
    35         6.022       0.000
    36         6.345       0.000
    37         6.485       0.000
   ...
    39         7.041       0.000

kpt = [-0.455, -0.273, 0.000], weight = 0.008:
  Band      eig [eV]   occ [0-1]
     0       -63.435       1.000
   ...
    22        -1.440       1.000
    23        -1.376       1.000
    24        -1.201       1.000
    25        -0.778       1.000
    26        -0.614       1.000
    27        -0.531       1.000
    28        -0.327       0.999
    29        -0.173       0.994
    30         0.538       0.127
    31         0.737       0.020
    32         3.996       0.000
    33         4.158       0.000
    34         5.804       0.000
    35         6.053       0.000
    36         6.202       0.000
    37         6.684       0.000
   ...
    39         7.031       0.000
(only showing first 3 out of 121 k-points)

Gap: 0.218 eV
Transition (v -> c):
  (s=0, k=71, n=29, [0.09, 0.00, 0.00]) -> (s=0, k=2, n=30, [-0.45, -0.27, 0.00])
# Writing to gsq-05.gpw (mode='')

---

timing:  # [seconds]
  Total: 367.489  # ━━━━━━━━━━━━━━━━━━━━━━━━━━━━━━━━━━━━━━━━━━━━━━━━━━━━━━━━━
  Init:    7.536  # ━
  SCF:   359.018  # ━━━━━━━━━━━━━━━━━━━━━━━━━━━━━━━━━━━━━━━━━━━━━━━━━━━━━━━╸

Max RSS: 514.465  # MiB
