#  __  _  _
# | _ |_)|_||  |
# |__||  | ||/\| - 24.1.0

User:   s194099@n-62-29-14
Date:   Wed Apr 17 16:16:03 2024
Arch:   x86_64
Pid:    32167
CWD:    /zhome/84/5/147090/10302_NM/NiI2
Python: 3.8.5
gpaw:   /zhome/84/5/147090/venv1/gpaw/gpaw (10808453a8)
_gpaw:  /zhome/84/5/147090/venv1/gpaw/
        _gpaw.cpython-38-x86_64-linux-gnu.so (10808453a8)
ase:    /zhome/84/5/147090/venv1/ase/ase (version 3.23.0b1-c36115a2db)
numpy:  /zhome/84/5/147090/venv1/lib/python3.8/site-packages/numpy (version 1.24.4)
scipy:  /zhome/84/5/147090/venv1/lib/python3.8/site-packages/scipy (version 1.10.1)
libxc:  4.3.4
units:  Angstrom and eV
cores: 12
OpenMP: False
OMP_NUM_THREADS: 1

---
input parameters:
  kpts: 
    density: 6.0
    gamma: True
  magmoms: [[1, 0, 0], [0, 0, 0], [0, 0, 0]]
  mixer: 
    backend: 'pulay'
    beta: 0.05
    method: 'sum'
    nmaxold: 5
    weight: 100
  mode: 
    name: 'pw'
    ecut: 600
    qspiral: array([0.19047619, 0.19047619, 0.        ])
  parallel: 
    kpt: None
    domain: 1
    band: 1
    order: 'kdb'
    stridebands: False
    augment_grids: False
    sl_auto: False
    sl_default: None
    sl_diagonalize: None
    sl_inverse_cholesky: None
    sl_lcao: None
    sl_lrtddft: None
    use_elpa: False
    elpasolver: '2stage'
    buffer_size: None
    gpu: False
  symmetry: 
    point_group: False
    time_reversal: False
  xc: 
    name: 'LDA'

#                        
#                        
#                        
#                        
#                        
#              I         
#                        
#        Ni              
#          I             
#                        
#                        
#                        
#                        
#                        

atoms: [  # symbols, positions [Ang] and initial magnetic moments
  [ Ni, [   0.000000,    0.000000,    5.513573], [ 1.000,  0.000,  0.000]], # 0
  [  I, [   1.984831,    1.145943,    7.027147], [ 0.000,  0.000,  0.000]], # 1
  [  I, [  -0.000000,    2.291886,    4.000000], [ 0.000,  0.000,  0.000]]] # 2

cell: [  # Ang
#     x            y            z
  [   3.969662,    0.000000,    0.000000],
  [  -1.984831,    3.437828,    0.000000],
  [   0.000000,   -0.000000,   11.027147]]

periodic: [True      , True      , False     ]
lengths:  [  3.969662,   3.969662,  11.027147]  # Ang
angles:   [ 90.000000,  90.000000, 120.000000]

symmetry:
  number of symmetries: 1
  rotations: [
    [[ 1,  0,  0], [ 0,  1,  0], [ 0,  0,  1]]]

bz sampling:
  number of bz points: 121
  number of ibz points: 121
  monkhorst-pack size: [11, 11, 1]
  monkhorst-pack shift: [0, 0, 0]
  points and weights: [
    [[ -0.45454545,  -0.45454545,   0.00000000], 0.00826446],  # 0
    [[ -0.45454545,  -0.36363636,   0.00000000], 0.00826446],  # 1
    [[ -0.45454545,  -0.27272727,   0.00000000], 0.00826446],  # 2
    [[ -0.45454545,  -0.18181818,   0.00000000], 0.00826446],  # 3
    [[ -0.45454545,  -0.09090909,   0.00000000], 0.00826446],  # 4
    [[ -0.45454545,   0.00000000,   0.00000000], 0.00826446],  # 5
    [[ -0.45454545,   0.09090909,   0.00000000], 0.00826446],  # 6
    [[ -0.45454545,   0.18181818,   0.00000000], 0.00826446],  # 7
    [[ -0.45454545,   0.27272727,   0.00000000], 0.00826446],  # 8
    [[ -0.45454545,   0.36363636,   0.00000000], 0.00826446],  # 9
    # ...
    [[  0.45454545,   0.45454545,   0.00000000], 0.00826446]]  # 120

plane wave coefficients: 5038
cutoff: 600.0 eV

spin-components: 4  # (non-collinear spins)
bands: 40
valence electrons: 30.0
spin-degeneracy: 1
dtype: complex128

memory:
    wave functions: 778_736_640  # bytes  (64_894_720 per core)

parallelization:
    kpt:    12
    domain: 1
    band:   1

density:
  components: 4
  grid points: [24 24 63]
  charge: 0.0  # |e|

potential:
  grid points: [24 24 63]

species:
  Ni:
    name: Nickel
    id: 1802175e8de9ea26d9f4394ec1a7d564
    Z: 28.0
    valence: 16
    core: 12
    charge: 0.0
    file: /zhome/86/d/1666/PAW/gpaw-setups-0.9.20000/Ni.LDA.gz
    compensation charges: {type: gauss,
                           rc: 0.36,
                           lmax: 2}
    cutoffs: {filter: 2.14,
              core: 1.98}
    valence states:
      #              energy  rcut
      - 4s(2.00)    -5.858   1.164
      - 3p(6.00)   -71.266   1.207
      - 4p(0.00)    -1.338   1.207
      - 3d(8.00)    -9.141   1.138
      -  s          21.353   1.164
      -  d          18.071   1.138
  
    # Using partial waves for Ni as LCAO basis

  I:
    name: Iodine
    id: b559721c0c096a7b4c8fc0e0f4de5cf4
    Z: 53.0
    valence: 7
    core: 46
    charge: 0.0
    file: /zhome/86/d/1666/PAW/gpaw-setups-0.9.20000/I.LDA.gz
    compensation charges: {type: gauss,
                           rc: 0.37,
                           lmax: 2}
    cutoffs: {filter: 2.06,
              core: 2.90}
    valence states:
      #              energy  rcut
      - 5s(2.00)   -17.626   1.164
      - 5p(5.00)    -7.241   1.164
      -  s           9.585   1.164
      -  p          19.970   1.164
      -  d           0.000   1.164
  
    # Using partial waves for I as LCAO basis

Reference energy: -428067.566327  # eV

eigensolver:
  name: 'Davidson'
  niter: 2
  converge_bands: 'occupied'
Density mixing:
  Method: sum
  Backend: pulay
  Linear mixing parameter: 0.05
  old densities: 5
  Damping of long wavelength oscillations: 100
occupation numbers:
  Fermi-Dirac:
    width: 0.1000  # eV
  

poisson solver:
  ecut: 4800.0  # eV

xc functional:
  name: None

convergence criteria:
- Maximum [total energy] change in last 3 cyles: 0.0005 eV / valence electron
- Maximum integral of absolute [dens]ity change: 0.0001 electrons / valence electron
- Maximum integral of absolute [eigenst]ate change: 4e-08 eV^2 / valence electron
maximum number of iterations: 333

#      iter     time        total  log10-change:
#                          energy   eigst   dens
# iter:   1 16:16:21   -13.586231                  +1.0,+0.0,+0.0
# iter:   2 16:16:32   -12.644531   -0.03  -1.31   +0.9,+0.0,+0.0
# iter:   3 16:16:43   -12.228690   -0.55  -1.45   +1.0,+0.0,-0.0
# iter:   4 16:16:54   -12.294532   -1.32  -1.68   +1.1,+0.0,+0.0
# iter:   5 16:17:05   -12.563058   -1.47  -1.66   +1.2,+0.0,-0.0
# iter:   6 16:17:16   -12.317789   -1.79  -1.73   +1.2,+0.0,+0.0
# iter:   7 16:17:27   -12.303619   -2.22  -2.13   +1.2,+0.0,+0.0
# iter:   8 16:17:37   -12.298295   -2.47  -2.31   +1.3,+0.0,+0.0
# iter:   9 16:17:48   -12.300646c  -2.73  -2.72   +1.3,+0.0,+0.0
# iter:  10 16:17:59   -12.301959c  -3.06  -2.98   +1.3,+0.0,+0.0
# iter:  11 16:18:10   -12.304319c  -3.13  -3.07   +1.4,+0.0,+0.0
# iter:  12 16:18:21   -12.304976c  -3.48  -3.25   +1.4,+0.0,+0.0
# iter:  13 16:18:31   -12.305086c  -3.65  -3.69   +1.4,+0.0,+0.0
# iter:  14 16:18:42   -12.305193c  -3.83  -3.75   +1.4,+0.0,+0.0
# iter:  15 16:18:53   -12.305797c  -3.99  -3.80   +1.4,+0.0,+0.0
# iter:  16 16:19:04   -12.305748c  -4.15  -3.81   +1.4,+0.0,+0.0
# iter:  17 16:19:14   -12.305848c  -4.33  -3.87   +1.4,+0.0,+0.0
# iter:  18 16:19:25   -12.305997c  -4.51  -3.86   +1.4,+0.0,+0.0
# iter:  19 16:19:36   -12.306074c  -4.69  -3.87   +1.4,+0.0,+0.0
# iter:  20 16:19:47   -12.306152c  -4.85  -3.94   +1.4,+0.0,+0.0
# iter:  21 16:19:57   -12.306008c  -5.03  -3.92   +1.4,+0.0,+0.0
# iter:  22 16:20:08   -12.305952c  -5.21  -3.91   +1.4,+0.0,+0.0
# iter:  23 16:20:19   -12.306053c  -5.39  -3.96   +1.4,+0.0,+0.0
# iter:  24 16:20:29   -12.306129c  -5.56  -3.97   +1.4,+0.0,+0.0
# iter:  25 16:20:40   -12.306355c  -5.63  -3.98   +1.4,+0.0,+0.0
# iter:  26 16:20:51   -12.306697c  -5.68  -4.02c  +1.4,+0.0,+0.0
# iter:  27 16:21:02   -12.306794c  -5.74  -4.05c  +1.4,+0.0,+0.0
# iter:  28 16:21:12   -12.306821c  -6.25  -4.03c  +1.4,+0.0,+0.0
# iter:  29 16:21:23   -12.306874c  -6.42  -4.12c  +1.4,+0.0,+0.0
# iter:  30 16:21:34   -12.307082c  -6.06  -4.18c  +1.4,+0.0,+0.0
# iter:  31 16:21:45   -12.307063c  -6.75  -4.29c  +1.4,+0.0,+0.0
# iter:  32 16:21:55   -12.306984c  -6.73  -4.31c  +1.4,+0.0,+0.0
# iter:  33 16:22:06   -12.307037c  -6.67  -4.43c  +1.4,+0.0,+0.0
# iter:  34 16:22:17   -12.307024c  -7.31  -4.76c  +1.4,+0.0,+0.0
# iter:  35 16:22:27   -12.307056c  -7.46c -4.82c  +1.4,+0.0,+0.0
scf_steps: 35
energies:  # eV
  coulomb:          -7.667724
  zero:              0.067299
  xc:              -14.891220
  external:          0.000000
  kinetic:          10.204034
  spinorbit:         0.000000
  entropy:          -0.038891
  total:           -12.326502
  extrapolated:    -12.307056

dipole moment: [-3.768039, -6.525627, -2.406334]  # |e|*Ang

total magnetic moment: [1.413939, 0.025646, 0.000000]

local magnetic moments: [
  [ 1.122042, -0.000000,  0.000000],  # Ni 0
  [ 0.037026, -0.094255,  0.000000],  # I  1
  [ 0.036968, -0.094277,  0.000000]]  # I  2


Fermi level: 0.331 eV

kpt = [-0.455, -0.455, 0.000], weight = 0.008:
  Band      eig [eV]   occ [0-1]
     0       -63.430       1.000
   ...
    22        -1.528       1.000
    23        -1.378       1.000
    24        -1.306       1.000
    25        -0.790       1.000
    26        -0.627       1.000
    27        -0.590       1.000
    28        -0.249       0.997
    29        -0.164       0.993
    30         0.670       0.033
    31         0.735       0.017
    32         3.380       0.000
    33         4.097       0.000
    34         5.619       0.000
    35         6.241       0.000
    36         6.345       0.000
    37         6.355       0.000
   ...
    39         6.997       0.000

kpt = [-0.455, -0.364, 0.000], weight = 0.008:
  Band      eig [eV]   occ [0-1]
     0       -63.430       1.000
   ...
    22        -1.504       1.000
    23        -1.391       1.000
    24        -1.355       1.000
    25        -0.890       1.000
    26        -0.636       1.000
    27        -0.623       1.000
    28        -0.202       0.995
    29        -0.050       0.978
    30         0.684       0.028
    31         0.833       0.007
    32         3.119       0.000
    33         4.083       0.000
    34         5.150       0.000
    35         6.001       0.000
    36         6.319       0.000
    37         6.376       0.000
   ...
    39         7.404       0.000

kpt = [-0.455, -0.273, 0.000], weight = 0.008:
  Band      eig [eV]   occ [0-1]
     0       -63.430       1.000
   ...
    22        -1.424       1.000
    23        -1.403       1.000
    24        -1.280       1.000
    25        -0.909       1.000
    26        -0.646       1.000
    27        -0.613       1.000
    28        -0.172       0.994
    29         0.005       0.963
    30         0.632       0.047
    31         0.817       0.008
    32         3.434       0.000
    33         3.870       0.000
    34         5.512       0.000
    35         6.088       0.000
    36         6.104       0.000
    37         6.470       0.000
   ...
    39         6.967       0.000
(only showing first 3 out of 121 k-points)

Gap: 0.385 eV
Transition (v -> c):
  (s=0, k=38, n=29, [-0.18, 0.00, 0.00]) -> (s=0, k=30, n=30, [-0.27, 0.27, 0.00])
# Writing to gsq-22.gpw (mode='')

---

timing:  # [seconds]
  Total: 384.474  # ━━━━━━━━━━━━━━━━━━━━━━━━━━━━━━━━━━━━━━━━━━━━━━━━━━━━━━━━━
  Init:    7.543  # ━
  SCF:   376.462  # ━━━━━━━━━━━━━━━━━━━━━━━━━━━━━━━━━━━━━━━━━━━━━━━━━━━━━━━━

Max RSS: 817.230  # MiB
