#  __  _  _
# | _ |_)|_||  |
# |__||  | ||/\| - 24.1.0

User:   s194099@n-62-29-14
Date:   Wed Apr 17 14:24:27 2024
Arch:   x86_64
Pid:    32167
CWD:    /zhome/84/5/147090/10302_NM/NiI2
Python: 3.8.5
gpaw:   /zhome/84/5/147090/venv1/gpaw/gpaw (10808453a8)
_gpaw:  /zhome/84/5/147090/venv1/gpaw/
        _gpaw.cpython-38-x86_64-linux-gnu.so (10808453a8)
ase:    /zhome/84/5/147090/venv1/ase/ase (version 3.23.0b1-c36115a2db)
numpy:  /zhome/84/5/147090/venv1/lib/python3.8/site-packages/numpy (version 1.24.4)
scipy:  /zhome/84/5/147090/venv1/lib/python3.8/site-packages/scipy (version 1.10.1)
libxc:  4.3.4
units:  Angstrom and eV
cores: 12
OpenMP: False
OMP_NUM_THREADS: 1

---
input parameters:
  kpts: 
    density: 6.0
    gamma: True
  magmoms: [[1, 0, 0], [0, 0, 0], [0, 0, 0]]
  mixer: 
    backend: 'pulay'
    beta: 0.05
    method: 'sum'
    nmaxold: 5
    weight: 100
  mode: 
    name: 'pw'
    ecut: 600
    qspiral: array([0.35, 0.  , 0.  ])
  parallel: 
    kpt: None
    domain: 1
    band: 1
    order: 'kdb'
    stridebands: False
    augment_grids: False
    sl_auto: False
    sl_default: None
    sl_diagonalize: None
    sl_inverse_cholesky: None
    sl_lcao: None
    sl_lrtddft: None
    use_elpa: False
    elpasolver: '2stage'
    buffer_size: None
    gpu: False
  symmetry: 
    point_group: False
    time_reversal: False
  xc: 
    name: 'LDA'

#                        
#                        
#                        
#                        
#                        
#              I         
#                        
#        Ni              
#          I             
#                        
#                        
#                        
#                        
#                        

atoms: [  # symbols, positions [Ang] and initial magnetic moments
  [ Ni, [   0.000000,    0.000000,    5.513573], [ 1.000,  0.000,  0.000]], # 0
  [  I, [   1.984831,    1.145943,    7.027147], [ 0.000,  0.000,  0.000]], # 1
  [  I, [  -0.000000,    2.291886,    4.000000], [ 0.000,  0.000,  0.000]]] # 2

cell: [  # Ang
#     x            y            z
  [   3.969662,    0.000000,    0.000000],
  [  -1.984831,    3.437828,    0.000000],
  [   0.000000,   -0.000000,   11.027147]]

periodic: [True      , True      , False     ]
lengths:  [  3.969662,   3.969662,  11.027147]  # Ang
angles:   [ 90.000000,  90.000000, 120.000000]

symmetry:
  number of symmetries: 1
  rotations: [
    [[ 1,  0,  0], [ 0,  1,  0], [ 0,  0,  1]]]

bz sampling:
  number of bz points: 121
  number of ibz points: 121
  monkhorst-pack size: [11, 11, 1]
  monkhorst-pack shift: [0, 0, 0]
  points and weights: [
    [[ -0.45454545,  -0.45454545,   0.00000000], 0.00826446],  # 0
    [[ -0.45454545,  -0.36363636,   0.00000000], 0.00826446],  # 1
    [[ -0.45454545,  -0.27272727,   0.00000000], 0.00826446],  # 2
    [[ -0.45454545,  -0.18181818,   0.00000000], 0.00826446],  # 3
    [[ -0.45454545,  -0.09090909,   0.00000000], 0.00826446],  # 4
    [[ -0.45454545,   0.00000000,   0.00000000], 0.00826446],  # 5
    [[ -0.45454545,   0.09090909,   0.00000000], 0.00826446],  # 6
    [[ -0.45454545,   0.18181818,   0.00000000], 0.00826446],  # 7
    [[ -0.45454545,   0.27272727,   0.00000000], 0.00826446],  # 8
    [[ -0.45454545,   0.36363636,   0.00000000], 0.00826446],  # 9
    # ...
    [[  0.45454545,   0.45454545,   0.00000000], 0.00826446]]  # 120

plane wave coefficients: 5038
cutoff: 600.0 eV

spin-components: 4  # (non-collinear spins)
bands: 40
valence electrons: 30.0
spin-degeneracy: 1
dtype: complex128

memory:
    wave functions: 778_736_640  # bytes  (64_894_720 per core)

parallelization:
    kpt:    12
    domain: 1
    band:   1

density:
  components: 4
  grid points: [24 24 63]
  charge: 0.0  # |e|

potential:
  grid points: [24 24 63]

species:
  Ni:
    name: Nickel
    id: 1802175e8de9ea26d9f4394ec1a7d564
    Z: 28.0
    valence: 16
    core: 12
    charge: 0.0
    file: /zhome/86/d/1666/PAW/gpaw-setups-0.9.20000/Ni.LDA.gz
    compensation charges: {type: gauss,
                           rc: 0.36,
                           lmax: 2}
    cutoffs: {filter: 2.14,
              core: 1.98}
    valence states:
      #              energy  rcut
      - 4s(2.00)    -5.858   1.164
      - 3p(6.00)   -71.266   1.207
      - 4p(0.00)    -1.338   1.207
      - 3d(8.00)    -9.141   1.138
      -  s          21.353   1.164
      -  d          18.071   1.138
  
    # Using partial waves for Ni as LCAO basis

  I:
    name: Iodine
    id: b559721c0c096a7b4c8fc0e0f4de5cf4
    Z: 53.0
    valence: 7
    core: 46
    charge: 0.0
    file: /zhome/86/d/1666/PAW/gpaw-setups-0.9.20000/I.LDA.gz
    compensation charges: {type: gauss,
                           rc: 0.37,
                           lmax: 2}
    cutoffs: {filter: 2.06,
              core: 2.90}
    valence states:
      #              energy  rcut
      - 5s(2.00)   -17.626   1.164
      - 5p(5.00)    -7.241   1.164
      -  s           9.585   1.164
      -  p          19.970   1.164
      -  d           0.000   1.164
  
    # Using partial waves for I as LCAO basis

Reference energy: -428067.566327  # eV

eigensolver:
  name: 'Davidson'
  niter: 2
  converge_bands: 'occupied'
Density mixing:
  Method: sum
  Backend: pulay
  Linear mixing parameter: 0.05
  old densities: 5
  Damping of long wavelength oscillations: 100
occupation numbers:
  Fermi-Dirac:
    width: 0.1000  # eV
  

poisson solver:
  ecut: 4800.0  # eV

xc functional:
  name: None

convergence criteria:
- Maximum [total energy] change in last 3 cyles: 0.0005 eV / valence electron
- Maximum integral of absolute [dens]ity change: 0.0001 electrons / valence electron
- Maximum integral of absolute [eigenst]ate change: 4e-08 eV^2 / valence electron
maximum number of iterations: 333

#      iter     time        total  log10-change:
#                          energy   eigst   dens
# iter:   1 14:24:45   -13.529928                  +1.0,+0.0,+0.0
# iter:   2 14:24:56   -12.622684   +0.01  -1.31   +0.9,+0.0,-0.0
# iter:   3 14:25:07   -12.209398   -0.52  -1.45   +0.9,+0.0,-0.0
# iter:   4 14:25:19   -12.274317   -1.26  -1.68   +1.0,+0.0,+0.0
# iter:   5 14:25:30   -12.558441   -1.42  -1.66   +1.1,+0.0,-0.0
# iter:   6 14:25:41   -12.284497   -1.71  -1.71   +1.1,+0.0,-0.0
# iter:   7 14:25:52   -12.272842   -2.13  -2.15   +1.1,+0.0,-0.0
# iter:   8 14:26:03   -12.272867c  -2.42  -2.34   +1.2,+0.0,-0.0
# iter:   9 14:26:14   -12.274864c  -2.61  -2.62   +1.2,+0.0,-0.0
# iter:  10 14:26:24   -12.275118c  -2.93  -2.99   +1.3,+0.0,+0.0
# iter:  11 14:26:35   -12.283177c  -3.08  -2.96   +1.3,+0.0,-0.0
# iter:  12 14:26:46   -12.281853c  -3.33  -2.81   +1.3,+0.0,-0.0
# iter:  13 14:26:57   -12.282903c  -3.51  -2.89   +1.3,+0.0,-0.0
# iter:  14 14:27:08   -12.281146c  -3.54  -2.92   +1.3,+0.0,-0.0
# iter:  15 14:27:19   -12.281129c  -3.83  -3.42   +1.3,+0.0,-0.0
# iter:  16 14:27:30   -12.281820c  -4.09  -3.59   +1.3,+0.0,-0.0
# iter:  17 14:27:41   -12.283545c  -4.10  -3.60   +1.4,+0.0,-0.0
# iter:  18 14:27:52   -12.283527c  -4.45  -3.97   +1.4,+0.0,-0.0
# iter:  19 14:28:03   -12.283568c  -4.62  -4.04c  +1.4,+0.0,-0.0
# iter:  20 14:28:13   -12.283901c  -4.76  -4.05c  +1.4,+0.0,-0.0
# iter:  21 14:28:24   -12.283870c  -4.96  -4.11c  +1.4,+0.0,-0.0
# iter:  22 14:28:35   -12.283941c  -5.08  -4.07c  +1.4,+0.0,-0.0
# iter:  23 14:28:46   -12.283749c  -5.18  -3.92   +1.4,+0.0,-0.0
# iter:  24 14:28:57   -12.283820c  -5.49  -4.22c  +1.4,+0.0,-0.0
# iter:  25 14:29:08   -12.283861c  -5.66  -4.22c  +1.4,+0.0,-0.0
# iter:  26 14:29:18   -12.283940c  -5.81  -4.22c  +1.4,+0.0,-0.0
# iter:  27 14:29:29   -12.284162c  -5.85  -4.25c  +1.4,+0.0,-0.0
# iter:  28 14:29:40   -12.284165c  -6.17  -4.27c  +1.4,+0.0,-0.0
# iter:  29 14:29:51   -12.284122c  -6.35  -4.28c  +1.4,+0.0,-0.0
# iter:  30 14:30:01   -12.284195c  -6.50  -4.27c  +1.4,+0.0,-0.0
# iter:  31 14:30:12   -12.284329c  -6.44  -4.31c  +1.4,+0.0,-0.0
# iter:  32 14:30:23   -12.284497c  -6.28  -4.33c  +1.4,+0.0,-0.0
# iter:  33 14:30:34   -12.284511c  -6.84  -4.42c  +1.4,+0.0,-0.0
# iter:  34 14:30:45   -12.284493c  -7.18  -4.56c  +1.4,+0.0,-0.0
# iter:  35 14:30:55   -12.284491c  -7.46c -4.91c  +1.4,+0.0,-0.0
scf_steps: 35
energies:  # eV
  coulomb:          -7.851009
  zero:              0.066366
  xc:              -14.906489
  external:          0.000000
  kinetic:          10.432474
  spinorbit:         0.000000
  entropy:          -0.051666
  total:           -12.310324
  extrapolated:    -12.284491

dipole moment: [-3.699731, -6.467347, -1.990916]  # |e|*Ang

total magnetic moment: [1.372548, 0.019041, -0.000000]

local magnetic moments: [
  [ 1.119697, -0.000000,  0.000000],  # Ni 0
  [-0.010516, -0.093812, -0.000000],  # I  1
  [ 0.082076, -0.046634, -0.000000]]  # I  2


Fermi level: 0.336 eV

kpt = [-0.455, -0.455, 0.000], weight = 0.008:
  Band      eig [eV]   occ [0-1]
     0       -63.434       1.000
   ...
    22        -1.489       1.000
    23        -1.446       1.000
    24        -1.230       1.000
    25        -0.772       1.000
    26        -0.655       1.000
    27        -0.569       1.000
    28        -0.311       0.998
    29        -0.068       0.983
    30         0.616       0.057
    31         0.803       0.009
    32         3.435       0.000
    33         4.150       0.000
    34         5.524       0.000
    35         5.921       0.000
    36         6.097       0.000
    37         6.470       0.000
   ...
    39         7.153       0.000

kpt = [-0.455, -0.364, 0.000], weight = 0.008:
  Band      eig [eV]   occ [0-1]
     0       -63.434       1.000
   ...
    22        -1.495       1.000
    23        -1.353       1.000
    24        -1.280       1.000
    25        -0.847       1.000
    26        -0.601       1.000
    27        -0.591       1.000
    28        -0.239       0.997
    29        -0.081       0.985
    30         0.612       0.060
    31         0.825       0.007
    32         3.381       0.000
    33         4.094       0.000
    34         5.251       0.000
    35         5.987       0.000
    36         6.337       0.000
    37         6.411       0.000
   ...
    39         7.115       0.000

kpt = [-0.455, -0.273, 0.000], weight = 0.008:
  Band      eig [eV]   occ [0-1]
     0       -63.434       1.000
   ...
    22        -1.427       1.000
    23        -1.335       1.000
    24        -1.191       1.000
    25        -0.844       1.000
    26        -0.602       1.000
    27        -0.538       1.000
    28        -0.299       0.998
    29        -0.076       0.984
    30         0.516       0.141
    31         0.773       0.013
    32         3.908       0.000
    33         4.156       0.000
    34         5.543       0.000
    35         5.951       0.000
    36         6.055       0.000
    37         6.450       0.000
   ...
    39         7.019       0.000
(only showing first 3 out of 121 k-points)

No gap
# Writing to gsq-07.gpw (mode='')

---

timing:  # [seconds]
  Total: 388.716  # ━━━━━━━━━━━━━━━━━━━━━━━━━━━━━━━━━━━━━━━━━━━━━━━━━━━━━━━━━
  Init:    7.565  # ━
  SCF:   380.791  # ━━━━━━━━━━━━━━━━━━━━━━━━━━━━━━━━━━━━━━━━━━━━━━━━━━━━━━━━

Max RSS: 514.465  # MiB
