#  __  _  _
# | _ |_)|_||  |
# |__||  | ||/\| - 24.1.0

User:   s194099@n-62-29-14
Date:   Wed Apr 17 13:55:42 2024
Arch:   x86_64
Pid:    32167
CWD:    /zhome/84/5/147090/10302_NM/NiI2
Python: 3.8.5
gpaw:   /zhome/84/5/147090/venv1/gpaw/gpaw (10808453a8)
_gpaw:  /zhome/84/5/147090/venv1/gpaw/
        _gpaw.cpython-38-x86_64-linux-gnu.so (10808453a8)
ase:    /zhome/84/5/147090/venv1/ase/ase (version 3.23.0b1-c36115a2db)
numpy:  /zhome/84/5/147090/venv1/lib/python3.8/site-packages/numpy (version 1.24.4)
scipy:  /zhome/84/5/147090/venv1/lib/python3.8/site-packages/scipy (version 1.10.1)
libxc:  4.3.4
units:  Angstrom and eV
cores: 12
OpenMP: False
OMP_NUM_THREADS: 1

---
input parameters:
  kpts: 
    density: 6.0
    gamma: True
  magmoms: [[1, 0, 0], [0, 0, 0], [0, 0, 0]]
  mixer: 
    backend: 'pulay'
    beta: 0.05
    method: 'sum'
    nmaxold: 5
    weight: 100
  mode: 
    name: 'pw'
    ecut: 600
    qspiral: array([0.1, 0. , 0. ])
  parallel: 
    kpt: None
    domain: 1
    band: 1
    order: 'kdb'
    stridebands: False
    augment_grids: False
    sl_auto: False
    sl_default: None
    sl_diagonalize: None
    sl_inverse_cholesky: None
    sl_lcao: None
    sl_lrtddft: None
    use_elpa: False
    elpasolver: '2stage'
    buffer_size: None
    gpu: False
  symmetry: 
    point_group: False
    time_reversal: False
  xc: 
    name: 'LDA'

#                        
#                        
#                        
#                        
#                        
#              I         
#                        
#        Ni              
#          I             
#                        
#                        
#                        
#                        
#                        

atoms: [  # symbols, positions [Ang] and initial magnetic moments
  [ Ni, [   0.000000,    0.000000,    5.513573], [ 1.000,  0.000,  0.000]], # 0
  [  I, [   1.984831,    1.145943,    7.027147], [ 0.000,  0.000,  0.000]], # 1
  [  I, [  -0.000000,    2.291886,    4.000000], [ 0.000,  0.000,  0.000]]] # 2

cell: [  # Ang
#     x            y            z
  [   3.969662,    0.000000,    0.000000],
  [  -1.984831,    3.437828,    0.000000],
  [   0.000000,   -0.000000,   11.027147]]

periodic: [True      , True      , False     ]
lengths:  [  3.969662,   3.969662,  11.027147]  # Ang
angles:   [ 90.000000,  90.000000, 120.000000]

symmetry:
  number of symmetries: 1
  rotations: [
    [[ 1,  0,  0], [ 0,  1,  0], [ 0,  0,  1]]]

bz sampling:
  number of bz points: 121
  number of ibz points: 121
  monkhorst-pack size: [11, 11, 1]
  monkhorst-pack shift: [0, 0, 0]
  points and weights: [
    [[ -0.45454545,  -0.45454545,   0.00000000], 0.00826446],  # 0
    [[ -0.45454545,  -0.36363636,   0.00000000], 0.00826446],  # 1
    [[ -0.45454545,  -0.27272727,   0.00000000], 0.00826446],  # 2
    [[ -0.45454545,  -0.18181818,   0.00000000], 0.00826446],  # 3
    [[ -0.45454545,  -0.09090909,   0.00000000], 0.00826446],  # 4
    [[ -0.45454545,   0.00000000,   0.00000000], 0.00826446],  # 5
    [[ -0.45454545,   0.09090909,   0.00000000], 0.00826446],  # 6
    [[ -0.45454545,   0.18181818,   0.00000000], 0.00826446],  # 7
    [[ -0.45454545,   0.27272727,   0.00000000], 0.00826446],  # 8
    [[ -0.45454545,   0.36363636,   0.00000000], 0.00826446],  # 9
    # ...
    [[  0.45454545,   0.45454545,   0.00000000], 0.00826446]]  # 120

plane wave coefficients: 5038
cutoff: 600.0 eV

spin-components: 4  # (non-collinear spins)
bands: 40
valence electrons: 30.0
spin-degeneracy: 1
dtype: complex128

memory:
    wave functions: 778_736_640  # bytes  (64_894_720 per core)

parallelization:
    kpt:    12
    domain: 1
    band:   1

density:
  components: 4
  grid points: [24 24 63]
  charge: 0.0  # |e|

potential:
  grid points: [24 24 63]

species:
  Ni:
    name: Nickel
    id: 1802175e8de9ea26d9f4394ec1a7d564
    Z: 28.0
    valence: 16
    core: 12
    charge: 0.0
    file: /zhome/86/d/1666/PAW/gpaw-setups-0.9.20000/Ni.LDA.gz
    compensation charges: {type: gauss,
                           rc: 0.36,
                           lmax: 2}
    cutoffs: {filter: 2.14,
              core: 1.98}
    valence states:
      #              energy  rcut
      - 4s(2.00)    -5.858   1.164
      - 3p(6.00)   -71.266   1.207
      - 4p(0.00)    -1.338   1.207
      - 3d(8.00)    -9.141   1.138
      -  s          21.353   1.164
      -  d          18.071   1.138
  
    # Using partial waves for Ni as LCAO basis

  I:
    name: Iodine
    id: b559721c0c096a7b4c8fc0e0f4de5cf4
    Z: 53.0
    valence: 7
    core: 46
    charge: 0.0
    file: /zhome/86/d/1666/PAW/gpaw-setups-0.9.20000/I.LDA.gz
    compensation charges: {type: gauss,
                           rc: 0.37,
                           lmax: 2}
    cutoffs: {filter: 2.06,
              core: 2.90}
    valence states:
      #              energy  rcut
      - 5s(2.00)   -17.626   1.164
      - 5p(5.00)    -7.241   1.164
      -  s           9.585   1.164
      -  p          19.970   1.164
      -  d           0.000   1.164
  
    # Using partial waves for I as LCAO basis

Reference energy: -428067.566327  # eV

eigensolver:
  name: 'Davidson'
  niter: 2
  converge_bands: 'occupied'
Density mixing:
  Method: sum
  Backend: pulay
  Linear mixing parameter: 0.05
  old densities: 5
  Damping of long wavelength oscillations: 100
occupation numbers:
  Fermi-Dirac:
    width: 0.1000  # eV
  

poisson solver:
  ecut: 4800.0  # eV

xc functional:
  name: None

convergence criteria:
- Maximum [total energy] change in last 3 cyles: 0.0005 eV / valence electron
- Maximum integral of absolute [dens]ity change: 0.0001 electrons / valence electron
- Maximum integral of absolute [eigenst]ate change: 4e-08 eV^2 / valence electron
maximum number of iterations: 333

#      iter     time        total  log10-change:
#                          energy   eigst   dens
# iter:   1 13:56:01   -13.951278                  +1.0,+0.0,+0.0
# iter:   2 13:56:12   -12.696285   -0.52  -1.31   +1.0,+0.0,-0.0
# iter:   3 13:56:23   -12.235734   -0.77  -1.45   +1.2,+0.0,-0.0
# iter:   4 13:56:34   -12.287185   -1.53  -1.68   +1.3,+0.0,-0.0
# iter:   5 13:56:45   -12.529000   -1.65  -1.66   +1.4,+0.0,-0.0
# iter:   6 13:56:56   -12.289218   -1.89  -1.75   +1.5,+0.0,-0.0
# iter:   7 13:57:07   -12.291294   -2.62  -2.23   +1.5,+0.0,-0.0
# iter:   8 13:57:17   -12.289871c  -2.83  -2.31   +1.6,+0.0,+0.0
# iter:   9 13:57:28   -12.292474c  -3.17  -2.74   +1.7,+0.0,+0.0
# iter:  10 13:57:39   -12.293845c  -3.65  -2.98   +1.7,+0.0,+0.0
# iter:  11 13:57:50   -12.296546c  -3.37  -2.99   +1.7,+0.0,+0.0
# iter:  12 13:58:01   -12.297793c  -4.20  -3.03   +1.7,+0.0,-0.0
# iter:  13 13:58:12   -12.297941c  -4.52  -3.58   +1.7,+0.0,+0.0
# iter:  14 13:58:22   -12.298278c  -4.79  -3.67   +1.7,+0.0,+0.0
# iter:  15 13:58:33   -12.298738c  -5.04  -3.72   +1.7,+0.0,-0.0
# iter:  16 13:58:44   -12.298869c  -5.27  -3.73   +1.7,+0.0,-0.0
# iter:  17 13:58:55   -12.298897c  -5.49  -3.72   +1.7,+0.0,-0.0
# iter:  18 13:59:06   -12.300344c  -4.69  -3.73   +1.8,+0.0,-0.0
# iter:  19 13:59:16   -12.300408c  -5.68  -3.91   +1.8,+0.0,-0.0
# iter:  20 13:59:27   -12.300428c  -6.11  -4.21c  +1.8,+0.0,-0.0
# iter:  21 13:59:38   -12.300410c  -6.42  -4.61c  +1.8,+0.0,-0.0
# iter:  22 13:59:49   -12.300434c  -6.66  -4.66c  +1.8,+0.0,-0.0
# iter:  23 14:00:00   -12.300500c  -6.62  -4.68c  +1.8,+0.0,-0.0
# iter:  24 14:00:10   -12.300509c  -7.02  -4.88c  +1.8,+0.0,-0.0
# iter:  25 14:00:21   -12.300570c  -7.12  -4.88c  +1.8,+0.0,-0.0
# iter:  26 14:00:32   -12.300524c  -7.35  -4.73c  +1.8,+0.0,-0.0
# iter:  27 14:00:43   -12.300508c  -7.66c -4.98c  +1.8,+0.0,-0.0
scf_steps: 27
energies:  # eV
  coulomb:          -7.994661
  zero:              0.066299
  xc:              -14.953853
  external:          0.000000
  kinetic:          10.605159
  spinorbit:         0.000000
  entropy:          -0.046902
  total:           -12.323959
  extrapolated:    -12.300508

dipole moment: [-4.131064, -7.143188, -4.449127]  # |e|*Ang

total magnetic moment: [1.774697, 0.014826, -0.000000]

local magnetic moments: [
  [ 1.146495, -0.000000, -0.000000],  # Ni 0
  [ 0.160154, -0.071527, -0.000000],  # I  1
  [ 0.171610, -0.036270, -0.000000]]  # I  2


Fermi level: 0.333 eV

kpt = [-0.455, -0.455, 0.000], weight = 0.008:
  Band      eig [eV]   occ [0-1]
     0       -63.458       1.000
   ...
    22        -1.614       1.000
    23        -1.480       1.000
    24        -1.386       1.000
    25        -0.775       1.000
    26        -0.642       1.000
    27        -0.608       1.000
    28        -0.116       0.989
    29        -0.080       0.984
    30         0.833       0.007
    31         0.851       0.006
    32         3.137       0.000
    33         3.660       0.000
    34         5.227       0.000
    35         5.997       0.000
    36         6.060       0.000
    37         6.293       0.000
   ...
    39         6.489       0.000

kpt = [-0.455, -0.364, 0.000], weight = 0.008:
  Band      eig [eV]   occ [0-1]
     0       -63.458       1.000
   ...
    22        -1.542       1.000
    23        -1.426       1.000
    24        -1.281       1.000
    25        -0.734       1.000
    26        -0.620       1.000
    27        -0.535       1.000
    28        -0.351       0.999
    29        -0.156       0.993
    30         0.608       0.060
    31         0.796       0.010
    32         3.635       0.000
    33         4.054       0.000
    34         5.884       0.000
    35         6.233       0.000
    36         6.322       0.000
    37         6.456       0.000
   ...
    39         7.235       0.000

kpt = [-0.455, -0.273, 0.000], weight = 0.008:
  Band      eig [eV]   occ [0-1]
     0       -63.458       1.000
   ...
    22        -1.520       1.000
    23        -1.402       1.000
    24        -1.213       1.000
    25        -0.729       1.000
    26        -0.618       1.000
    27        -0.529       1.000
    28        -0.451       1.000
    29        -0.179       0.994
    30         0.481       0.186
    31         0.774       0.012
    32         4.030       0.000
    33         4.251       0.000
    34         5.788       0.000
    35         6.179       0.000
    36         6.621       0.000
    37         6.728       0.000
   ...
    39         7.519       0.000
(only showing first 3 out of 121 k-points)

No gap
# Writing to gsq-02.gpw (mode='')

---

timing:  # [seconds]
  Total: 301.375  # ━━━━━━━━━━━━━━━━━━━━━━━━━━━━━━━━━━━━━━━━━━━━━━━━━━━━━━━━━
  Init:    7.598  # ━╸
  SCF:   292.743  # ━━━━━━━━━━━━━━━━━━━━━━━━━━━━━━━━━━━━━━━━━━━━━━━━━━━━━━━╸

Max RSS: 514.465  # MiB
