#  __  _  _
# | _ |_)|_||  |
# |__||  | ||/\| - 24.1.0

User:   s194099@n-62-29-14
Date:   Wed Apr 17 15:47:03 2024
Arch:   x86_64
Pid:    32167
CWD:    /zhome/84/5/147090/10302_NM/NiI2
Python: 3.8.5
gpaw:   /zhome/84/5/147090/venv1/gpaw/gpaw (10808453a8)
_gpaw:  /zhome/84/5/147090/venv1/gpaw/
        _gpaw.cpython-38-x86_64-linux-gnu.so (10808453a8)
ase:    /zhome/84/5/147090/venv1/ase/ase (version 3.23.0b1-c36115a2db)
numpy:  /zhome/84/5/147090/venv1/lib/python3.8/site-packages/numpy (version 1.24.4)
scipy:  /zhome/84/5/147090/venv1/lib/python3.8/site-packages/scipy (version 1.10.1)
libxc:  4.3.4
units:  Angstrom and eV
cores: 12
OpenMP: False
OMP_NUM_THREADS: 1

---
input parameters:
  kpts: 
    density: 6.0
    gamma: True
  magmoms: [[1, 0, 0], [0, 0, 0], [0, 0, 0]]
  mixer: 
    backend: 'pulay'
    beta: 0.05
    method: 'sum'
    nmaxold: 5
    weight: 100
  mode: 
    name: 'pw'
    ecut: 600
    qspiral: array([0.28571429, 0.28571429, 0.        ])
  parallel: 
    kpt: None
    domain: 1
    band: 1
    order: 'kdb'
    stridebands: False
    augment_grids: False
    sl_auto: False
    sl_default: None
    sl_diagonalize: None
    sl_inverse_cholesky: None
    sl_lcao: None
    sl_lrtddft: None
    use_elpa: False
    elpasolver: '2stage'
    buffer_size: None
    gpu: False
  symmetry: 
    point_group: False
    time_reversal: False
  xc: 
    name: 'LDA'

#                        
#                        
#                        
#                        
#                        
#              I         
#                        
#        Ni              
#          I             
#                        
#                        
#                        
#                        
#                        

atoms: [  # symbols, positions [Ang] and initial magnetic moments
  [ Ni, [   0.000000,    0.000000,    5.513573], [ 1.000,  0.000,  0.000]], # 0
  [  I, [   1.984831,    1.145943,    7.027147], [ 0.000,  0.000,  0.000]], # 1
  [  I, [  -0.000000,    2.291886,    4.000000], [ 0.000,  0.000,  0.000]]] # 2

cell: [  # Ang
#     x            y            z
  [   3.969662,    0.000000,    0.000000],
  [  -1.984831,    3.437828,    0.000000],
  [   0.000000,   -0.000000,   11.027147]]

periodic: [True      , True      , False     ]
lengths:  [  3.969662,   3.969662,  11.027147]  # Ang
angles:   [ 90.000000,  90.000000, 120.000000]

symmetry:
  number of symmetries: 1
  rotations: [
    [[ 1,  0,  0], [ 0,  1,  0], [ 0,  0,  1]]]

bz sampling:
  number of bz points: 121
  number of ibz points: 121
  monkhorst-pack size: [11, 11, 1]
  monkhorst-pack shift: [0, 0, 0]
  points and weights: [
    [[ -0.45454545,  -0.45454545,   0.00000000], 0.00826446],  # 0
    [[ -0.45454545,  -0.36363636,   0.00000000], 0.00826446],  # 1
    [[ -0.45454545,  -0.27272727,   0.00000000], 0.00826446],  # 2
    [[ -0.45454545,  -0.18181818,   0.00000000], 0.00826446],  # 3
    [[ -0.45454545,  -0.09090909,   0.00000000], 0.00826446],  # 4
    [[ -0.45454545,   0.00000000,   0.00000000], 0.00826446],  # 5
    [[ -0.45454545,   0.09090909,   0.00000000], 0.00826446],  # 6
    [[ -0.45454545,   0.18181818,   0.00000000], 0.00826446],  # 7
    [[ -0.45454545,   0.27272727,   0.00000000], 0.00826446],  # 8
    [[ -0.45454545,   0.36363636,   0.00000000], 0.00826446],  # 9
    # ...
    [[  0.45454545,   0.45454545,   0.00000000], 0.00826446]]  # 120

plane wave coefficients: 5038
cutoff: 600.0 eV

spin-components: 4  # (non-collinear spins)
bands: 40
valence electrons: 30.0
spin-degeneracy: 1
dtype: complex128

memory:
    wave functions: 778_736_640  # bytes  (64_894_720 per core)

parallelization:
    kpt:    12
    domain: 1
    band:   1

density:
  components: 4
  grid points: [24 24 63]
  charge: 0.0  # |e|

potential:
  grid points: [24 24 63]

species:
  Ni:
    name: Nickel
    id: 1802175e8de9ea26d9f4394ec1a7d564
    Z: 28.0
    valence: 16
    core: 12
    charge: 0.0
    file: /zhome/86/d/1666/PAW/gpaw-setups-0.9.20000/Ni.LDA.gz
    compensation charges: {type: gauss,
                           rc: 0.36,
                           lmax: 2}
    cutoffs: {filter: 2.14,
              core: 1.98}
    valence states:
      #              energy  rcut
      - 4s(2.00)    -5.858   1.164
      - 3p(6.00)   -71.266   1.207
      - 4p(0.00)    -1.338   1.207
      - 3d(8.00)    -9.141   1.138
      -  s          21.353   1.164
      -  d          18.071   1.138
  
    # Using partial waves for Ni as LCAO basis

  I:
    name: Iodine
    id: b559721c0c096a7b4c8fc0e0f4de5cf4
    Z: 53.0
    valence: 7
    core: 46
    charge: 0.0
    file: /zhome/86/d/1666/PAW/gpaw-setups-0.9.20000/I.LDA.gz
    compensation charges: {type: gauss,
                           rc: 0.37,
                           lmax: 2}
    cutoffs: {filter: 2.06,
              core: 2.90}
    valence states:
      #              energy  rcut
      - 5s(2.00)   -17.626   1.164
      - 5p(5.00)    -7.241   1.164
      -  s           9.585   1.164
      -  p          19.970   1.164
      -  d           0.000   1.164
  
    # Using partial waves for I as LCAO basis

Reference energy: -428067.566327  # eV

eigensolver:
  name: 'Davidson'
  niter: 2
  converge_bands: 'occupied'
Density mixing:
  Method: sum
  Backend: pulay
  Linear mixing parameter: 0.05
  old densities: 5
  Damping of long wavelength oscillations: 100
occupation numbers:
  Fermi-Dirac:
    width: 0.1000  # eV
  

poisson solver:
  ecut: 4800.0  # eV

xc functional:
  name: None

convergence criteria:
- Maximum [total energy] change in last 3 cyles: 0.0005 eV / valence electron
- Maximum integral of absolute [dens]ity change: 0.0001 electrons / valence electron
- Maximum integral of absolute [eigenst]ate change: 4e-08 eV^2 / valence electron
maximum number of iterations: 333

#      iter     time        total  log10-change:
#                          energy   eigst   dens
# iter:   1 15:47:21   -13.039031                  +1.0,+0.0,+0.0
# iter:   2 15:47:32   -12.531468   +0.31  -1.31   +0.8,+0.0,+0.0
# iter:   3 15:47:43   -12.194389   -0.35  -1.45   +0.8,+0.0,+0.0
# iter:   4 15:47:54   -12.240301   -1.03  -1.68   +0.9,+0.0,-0.0
# iter:   5 15:48:05   -12.584330   -1.18  -1.67   +0.9,+0.0,+0.0
# iter:   6 15:48:16   -12.282435   -1.49  -1.69   +0.9,+0.0,-0.0
# iter:   7 15:48:27   -12.288307   -1.87  -2.20   +0.9,+0.0,-0.0
# iter:   8 15:48:37   -12.279849c  -2.06  -2.30   +1.0,+0.0,-0.0
# iter:   9 15:48:48   -12.281496c  -2.28  -2.71   +1.0,+0.0,-0.0
# iter:  10 15:48:59   -12.283513c  -2.47  -2.97   +1.0,+0.0,-0.0
# iter:  11 15:49:10   -12.288101c  -2.61  -2.93   +1.1,+0.0,-0.0
# iter:  12 15:49:21   -12.288567c  -2.82  -3.41   +1.1,+0.0,-0.0
# iter:  13 15:49:32   -12.288622c  -2.97  -3.57   +1.1,+0.0,-0.0
# iter:  14 15:49:43   -12.288687c  -3.12  -3.57   +1.1,+0.0,-0.0
# iter:  15 15:49:53   -12.289105c  -3.26  -3.60   +1.1,+0.0,-0.0
# iter:  16 15:50:04   -12.289110c  -3.42  -3.57   +1.1,+0.0,-0.0
# iter:  17 15:50:15   -12.289221c  -3.57  -3.57   +1.1,+0.0,-0.0
# iter:  18 15:50:26   -12.289141c  -3.73  -3.57   +1.1,+0.0,-0.0
# iter:  19 15:50:37   -12.289702c  -3.88  -3.60   +1.1,+0.0,-0.0
# iter:  20 15:50:47   -12.290001c  -4.04  -3.66   +1.1,+0.0,-0.0
# iter:  21 15:50:58   -12.290197c  -4.21  -3.69   +1.1,+0.0,-0.0
# iter:  22 15:51:09   -12.290539c  -4.35  -3.79   +1.1,+0.0,-0.0
# iter:  23 15:51:20   -12.290517c  -4.54  -3.91   +1.1,+0.0,-0.0
# iter:  24 15:51:30   -12.290403c  -4.70  -3.92   +1.1,+0.0,-0.0
# iter:  25 15:51:41   -12.290943c  -4.84  -3.90   +1.1,+0.0,-0.0
# iter:  26 15:51:52   -12.291630c  -4.90  -3.96   +1.1,+0.0,+0.0
# iter:  27 15:52:03   -12.291567c  -5.08  -4.11c  +1.1,+0.0,-0.0
# iter:  28 15:52:14   -12.291725c  -5.34  -4.06c  +1.1,+0.0,-0.0
# iter:  29 15:52:25   -12.291741c  -5.51  -4.31c  +1.1,+0.0,-0.0
# iter:  30 15:52:35   -12.291978c  -5.53  -4.30c  +1.1,+0.0,-0.0
# iter:  31 15:52:46   -12.291987c  -5.81  -4.48c  +1.1,+0.0,-0.0
# iter:  32 15:52:57   -12.292040c  -5.95  -4.52c  +1.1,+0.0,-0.0
# iter:  33 15:53:08   -12.292019c  -6.13  -4.62c  +1.1,+0.0,-0.0
# iter:  34 15:53:19   -12.292016c  -6.27  -4.62c  +1.1,+0.0,-0.0
# iter:  35 15:53:29   -12.291977c  -6.42  -4.68c  +1.1,+0.0,-0.0
# iter:  36 15:53:40   -12.291843c  -6.37  -4.73c  +1.1,+0.0,-0.0
# iter:  37 15:53:51   -12.291858c  -6.73  -4.95c  +1.1,+0.0,-0.0
# iter:  38 15:54:02   -12.291851c  -6.88  -5.19c  +1.1,+0.0,+0.0
# iter:  39 15:54:12   -12.291851c  -7.04  -5.31c  +1.1,+0.0,-0.0
# iter:  40 15:54:23   -12.291847c  -7.20  -5.38c  +1.1,+0.0,-0.0
# iter:  41 15:54:34   -12.291845c  -7.37  -5.51c  +1.1,+0.0,+0.0
# iter:  42 15:54:45   -12.291848c  -7.53c -5.53c  +1.1,+0.0,+0.0
scf_steps: 42
energies:  # eV
  coulomb:          -7.701521
  zero:              0.066481
  xc:              -14.881943
  external:          0.000000
  kinetic:          10.247060
  spinorbit:         0.000000
  entropy:          -0.043848
  total:           -12.313772
  extrapolated:    -12.291848

dipole moment: [-3.493410, -6.050053, -0.914101]  # |e|*Ang

total magnetic moment: [1.143422, 0.008461, 0.000000]

local magnetic moments: [
  [ 1.111792, -0.000000, -0.000000],  # Ni 0
  [-0.007067, -0.031119, -0.000000],  # I  1
  [-0.007135, -0.031104, -0.000000]]  # I  2


Fermi level: 0.321 eV

kpt = [-0.455, -0.455, 0.000], weight = 0.008:
  Band      eig [eV]   occ [0-1]
     0       -63.419       1.000
   ...
    22        -1.498       1.000
    23        -1.298       1.000
    24        -1.271       1.000
    25        -0.820       1.000
    26        -0.608       1.000
    27        -0.585       1.000
    28        -0.291       0.998
    29        -0.254       0.997
    30         0.579       0.070
    31         0.627       0.045
    32         3.870       0.000
    33         4.119       0.000
    34         6.278       0.000
    35         6.348       0.000
    36         6.414       0.000
    37         6.638       0.000
   ...
    39         6.966       0.000

kpt = [-0.455, -0.364, 0.000], weight = 0.008:
  Band      eig [eV]   occ [0-1]
     0       -63.419       1.000
   ...
    22        -1.428       1.000
    23        -1.360       1.000
    24        -1.293       1.000
    25        -0.917       1.000
    26        -0.670       1.000
    27        -0.601       1.000
    28        -0.201       0.995
    29        -0.051       0.976
    30         0.629       0.044
    31         0.756       0.013
    32         3.440       0.000
    33         4.076       0.000
    34         5.660       0.000
    35         5.948       0.000
    36         6.209       0.000
    37         6.411       0.000
   ...
    39         7.060       0.000

kpt = [-0.455, -0.273, 0.000], weight = 0.008:
  Band      eig [eV]   occ [0-1]
     0       -63.419       1.000
   ...
    22        -1.463       1.000
    23        -1.374       1.000
    24        -1.269       1.000
    25        -0.924       1.000
    26        -0.726       1.000
    27        -0.583       1.000
    28        -0.093       0.984
    29         0.097       0.904
    30         0.640       0.040
    31         0.880       0.004
    32         3.224       0.000
    33         3.824       0.000
    34         5.205       0.000
    35         5.805       0.000
    36         5.957       0.000
    37         6.162       0.000
   ...
    39         6.541       0.000
(only showing first 3 out of 121 k-points)

Gap: 0.384 eV
Transition (v -> c):
  (s=0, k=113, n=29, [0.45, -0.18, 0.00]) -> (s=0, k=10, n=30, [-0.45, 0.45, 0.00])
# Writing to gsq-18.gpw (mode='')

---

timing:  # [seconds]
  Total: 462.273  # ━━━━━━━━━━━━━━━━━━━━━━━━━━━━━━━━━━━━━━━━━━━━━━━━━━━━━━━━━
  Init:    7.558  # ━
  SCF:   454.242  # ━━━━━━━━━━━━━━━━━━━━━━━━━━━━━━━━━━━━━━━━━━━━━━━━━━━━━━━━

Max RSS: 758.922  # MiB
