#  __  _  _
# | _ |_)|_||  |
# |__||  | ||/\| - 24.1.0

User:   s194099@n-62-29-14
Date:   Wed Apr 17 15:14:43 2024
Arch:   x86_64
Pid:    32167
CWD:    /zhome/84/5/147090/10302_NM/NiI2
Python: 3.8.5
gpaw:   /zhome/84/5/147090/venv1/gpaw/gpaw (10808453a8)
_gpaw:  /zhome/84/5/147090/venv1/gpaw/
        _gpaw.cpython-38-x86_64-linux-gnu.so (10808453a8)
ase:    /zhome/84/5/147090/venv1/ase/ase (version 3.23.0b1-c36115a2db)
numpy:  /zhome/84/5/147090/venv1/lib/python3.8/site-packages/numpy (version 1.24.4)
scipy:  /zhome/84/5/147090/venv1/lib/python3.8/site-packages/scipy (version 1.10.1)
libxc:  4.3.4
units:  Angstrom and eV
cores: 12
OpenMP: False
OMP_NUM_THREADS: 1

---
input parameters:
  kpts: 
    density: 6.0
    gamma: True
  magmoms: [[1, 0, 0], [0, 0, 0], [0, 0, 0]]
  mixer: 
    backend: 'pulay'
    beta: 0.05
    method: 'sum'
    nmaxold: 5
    weight: 100
  mode: 
    name: 'pw'
    ecut: 600
    qspiral: array([0.38888889, 0.22222222, 0.        ])
  parallel: 
    kpt: None
    domain: 1
    band: 1
    order: 'kdb'
    stridebands: False
    augment_grids: False
    sl_auto: False
    sl_default: None
    sl_diagonalize: None
    sl_inverse_cholesky: None
    sl_lcao: None
    sl_lrtddft: None
    use_elpa: False
    elpasolver: '2stage'
    buffer_size: None
    gpu: False
  symmetry: 
    point_group: False
    time_reversal: False
  xc: 
    name: 'LDA'

#                        
#                        
#                        
#                        
#                        
#              I         
#                        
#        Ni              
#          I             
#                        
#                        
#                        
#                        
#                        

atoms: [  # symbols, positions [Ang] and initial magnetic moments
  [ Ni, [   0.000000,    0.000000,    5.513573], [ 1.000,  0.000,  0.000]], # 0
  [  I, [   1.984831,    1.145943,    7.027147], [ 0.000,  0.000,  0.000]], # 1
  [  I, [  -0.000000,    2.291886,    4.000000], [ 0.000,  0.000,  0.000]]] # 2

cell: [  # Ang
#     x            y            z
  [   3.969662,    0.000000,    0.000000],
  [  -1.984831,    3.437828,    0.000000],
  [   0.000000,   -0.000000,   11.027147]]

periodic: [True      , True      , False     ]
lengths:  [  3.969662,   3.969662,  11.027147]  # Ang
angles:   [ 90.000000,  90.000000, 120.000000]

symmetry:
  number of symmetries: 1
  rotations: [
    [[ 1,  0,  0], [ 0,  1,  0], [ 0,  0,  1]]]

bz sampling:
  number of bz points: 121
  number of ibz points: 121
  monkhorst-pack size: [11, 11, 1]
  monkhorst-pack shift: [0, 0, 0]
  points and weights: [
    [[ -0.45454545,  -0.45454545,   0.00000000], 0.00826446],  # 0
    [[ -0.45454545,  -0.36363636,   0.00000000], 0.00826446],  # 1
    [[ -0.45454545,  -0.27272727,   0.00000000], 0.00826446],  # 2
    [[ -0.45454545,  -0.18181818,   0.00000000], 0.00826446],  # 3
    [[ -0.45454545,  -0.09090909,   0.00000000], 0.00826446],  # 4
    [[ -0.45454545,   0.00000000,   0.00000000], 0.00826446],  # 5
    [[ -0.45454545,   0.09090909,   0.00000000], 0.00826446],  # 6
    [[ -0.45454545,   0.18181818,   0.00000000], 0.00826446],  # 7
    [[ -0.45454545,   0.27272727,   0.00000000], 0.00826446],  # 8
    [[ -0.45454545,   0.36363636,   0.00000000], 0.00826446],  # 9
    # ...
    [[  0.45454545,   0.45454545,   0.00000000], 0.00826446]]  # 120

plane wave coefficients: 5038
cutoff: 600.0 eV

spin-components: 4  # (non-collinear spins)
bands: 40
valence electrons: 30.0
spin-degeneracy: 1
dtype: complex128

memory:
    wave functions: 778_736_640  # bytes  (64_894_720 per core)

parallelization:
    kpt:    12
    domain: 1
    band:   1

density:
  components: 4
  grid points: [24 24 63]
  charge: 0.0  # |e|

potential:
  grid points: [24 24 63]

species:
  Ni:
    name: Nickel
    id: 1802175e8de9ea26d9f4394ec1a7d564
    Z: 28.0
    valence: 16
    core: 12
    charge: 0.0
    file: /zhome/86/d/1666/PAW/gpaw-setups-0.9.20000/Ni.LDA.gz
    compensation charges: {type: gauss,
                           rc: 0.36,
                           lmax: 2}
    cutoffs: {filter: 2.14,
              core: 1.98}
    valence states:
      #              energy  rcut
      - 4s(2.00)    -5.858   1.164
      - 3p(6.00)   -71.266   1.207
      - 4p(0.00)    -1.338   1.207
      - 3d(8.00)    -9.141   1.138
      -  s          21.353   1.164
      -  d          18.071   1.138
  
    # Using partial waves for Ni as LCAO basis

  I:
    name: Iodine
    id: b559721c0c096a7b4c8fc0e0f4de5cf4
    Z: 53.0
    valence: 7
    core: 46
    charge: 0.0
    file: /zhome/86/d/1666/PAW/gpaw-setups-0.9.20000/I.LDA.gz
    compensation charges: {type: gauss,
                           rc: 0.37,
                           lmax: 2}
    cutoffs: {filter: 2.06,
              core: 2.90}
    valence states:
      #              energy  rcut
      - 5s(2.00)   -17.626   1.164
      - 5p(5.00)    -7.241   1.164
      -  s           9.585   1.164
      -  p          19.970   1.164
      -  d           0.000   1.164
  
    # Using partial waves for I as LCAO basis

Reference energy: -428067.566327  # eV

eigensolver:
  name: 'Davidson'
  niter: 2
  converge_bands: 'occupied'
Density mixing:
  Method: sum
  Backend: pulay
  Linear mixing parameter: 0.05
  old densities: 5
  Damping of long wavelength oscillations: 100
occupation numbers:
  Fermi-Dirac:
    width: 0.1000  # eV
  

poisson solver:
  ecut: 4800.0  # eV

xc functional:
  name: None

convergence criteria:
- Maximum [total energy] change in last 3 cyles: 0.0005 eV / valence electron
- Maximum integral of absolute [dens]ity change: 0.0001 electrons / valence electron
- Maximum integral of absolute [eigenst]ate change: 4e-08 eV^2 / valence electron
maximum number of iterations: 333

#      iter     time        total  log10-change:
#                          energy   eigst   dens
# iter:   1 15:15:01   -12.864622                  +1.0,+0.0,+0.0
# iter:   2 15:15:12   -12.490019   +0.38  -1.31   +0.8,+0.0,-0.0
# iter:   3 15:15:23   -12.181154   -0.30  -1.45   +0.7,+0.0,-0.0
# iter:   4 15:15:34   -12.219775   -0.96  -1.68   +0.8,+0.0,+0.0
# iter:   5 15:15:45   -12.599233   -1.11  -1.68   +0.9,+0.0,+0.0
# iter:   6 15:15:56   -12.272936   -1.43  -1.68   +0.8,+0.0,-0.0
# iter:   7 15:16:07   -12.279679   -1.80  -2.19   +0.9,+0.0,+0.0
# iter:   8 15:16:18   -12.271639c  -1.98  -2.30   +0.9,+0.0,+0.0
# iter:   9 15:16:29   -12.273377c  -2.19  -2.69   +1.0,+0.0,+0.0
# iter:  10 15:16:40   -12.275563c  -2.38  -2.96   +1.0,+0.0,+0.0
# iter:  11 15:16:51   -12.280739c  -2.51  -2.95   +1.0,+0.0,-0.0
# iter:  12 15:17:02   -12.281339c  -2.71  -3.33   +1.0,+0.0,-0.0
# iter:  13 15:17:13   -12.281437c  -2.86  -3.55   +1.0,+0.0,-0.0
# iter:  14 15:17:24   -12.281679c  -3.01  -3.51   +1.0,+0.0,-0.0
# iter:  15 15:17:35   -12.281719c  -3.16  -3.60   +1.0,+0.0,-0.0
# iter:  16 15:17:46   -12.281312c  -3.31  -3.60   +1.0,+0.0,-0.0
# iter:  17 15:17:57   -12.281486c  -3.47  -3.60   +1.0,+0.0,-0.0
# iter:  18 15:18:08   -12.281498c  -3.62  -3.61   +1.0,+0.0,-0.0
# iter:  19 15:18:19   -12.281180c  -3.78  -3.60   +1.0,+0.0,-0.0
# iter:  20 15:18:29   -12.281235c  -3.93  -3.65   +1.0,+0.0,-0.0
# iter:  21 15:18:40   -12.281604c  -4.10  -3.63   +1.0,+0.0,-0.0
# iter:  22 15:18:51   -12.282068c  -4.26  -3.65   +1.0,+0.0,-0.0
# iter:  23 15:19:02   -12.282252c  -4.43  -3.67   +1.0,+0.0,-0.0
# iter:  24 15:19:13   -12.282243c  -4.60  -3.67   +1.0,+0.0,-0.0
# iter:  25 15:19:24   -12.282270c  -4.77  -3.68   +1.0,+0.0,-0.0
# iter:  26 15:19:35   -12.282379c  -4.93  -3.67   +1.0,+0.0,-0.0
# iter:  27 15:19:45   -12.282523c  -5.08  -3.68   +1.0,+0.0,-0.0
# iter:  28 15:19:56   -12.282846c  -5.15  -3.68   +1.1,+0.0,-0.0
# iter:  29 15:20:07   -12.283065c  -5.36  -3.79   +1.1,+0.0,-0.0
# iter:  30 15:20:17   -12.283034c  -5.54  -3.76   +1.1,+0.0,+0.0
# iter:  31 15:20:28   -12.282802c  -5.64  -3.79   +1.1,+0.0,-0.0
# iter:  32 15:20:39   -12.283115c  -5.76  -3.74   +1.1,+0.0,-0.0
# iter:  33 15:20:50   -12.283099c  -6.00  -3.76   +1.1,+0.0,-0.0
# iter:  34 15:21:01   -12.283131c  -6.16  -3.77   +1.1,+0.0,-0.0
# iter:  35 15:21:11   -12.283290c  -6.23  -3.77   +1.1,+0.0,-0.0
# iter:  36 15:21:22   -12.284921c  -4.95  -3.80   +1.1,+0.0,-0.0
# iter:  37 15:21:33   -12.285028c  -5.69  -4.03c  +1.1,+0.0,-0.0
# iter:  38 15:21:44   -12.284997c  -6.34  -4.18c  +1.1,+0.0,-0.0
# iter:  39 15:21:54   -12.284987c  -6.90  -4.25c  +1.1,+0.0,-0.0
# iter:  40 15:22:05   -12.285174c  -6.33  -4.33c  +1.1,+0.0,-0.0
# iter:  41 15:22:16   -12.285168c  -7.15  -4.40c  +1.1,+0.0,-0.0
# iter:  42 15:22:27   -12.285125c  -7.25  -4.45c  +1.1,+0.0,-0.0
# iter:  43 15:22:37   -12.285192c  -6.86  -4.66c  +1.1,+0.0,-0.0
# iter:  44 15:22:48   -12.285173c  -7.73c -4.86c  +1.1,+0.0,-0.0
scf_steps: 44
energies:  # eV
  coulomb:          -7.746903
  zero:              0.065854
  xc:              -14.885939
  external:          0.000000
  kinetic:          10.305601
  spinorbit:         0.000000
  entropy:          -0.047572
  total:           -12.308959
  extrapolated:    -12.285173

dipole moment: [-3.370592, -5.991662, -0.412935]  # |e|*Ang

total magnetic moment: [1.090352, 0.002759, -0.000000]

local magnetic moments: [
  [ 1.110608, -0.000000, -0.000000],  # Ni 0
  [-0.031207, -0.000005, -0.000000],  # I  1
  [ 0.023903, -0.020063, -0.000000]]  # I  2


Fermi level: 0.318 eV

kpt = [-0.455, -0.455, 0.000], weight = 0.008:
  Band      eig [eV]   occ [0-1]
     0       -63.423       1.000
   ...
    22        -1.493       1.000
    23        -1.320       1.000
    24        -1.245       1.000
    25        -0.816       1.000
    26        -0.614       1.000
    27        -0.582       1.000
    28        -0.337       0.999
    29        -0.218       0.995
    30         0.539       0.099
    31         0.660       0.032
    32         3.955       0.000
    33         4.108       0.000
    34         6.138       0.000
    35         6.227       0.000
    36         6.617       0.000
    37         6.642       0.000
   ...
    39         7.204       0.000

kpt = [-0.455, -0.364, 0.000], weight = 0.008:
  Band      eig [eV]   occ [0-1]
     0       -63.423       1.000
   ...
    22        -1.400       1.000
    23        -1.374       1.000
    24        -1.245       1.000
    25        -0.889       1.000
    26        -0.652       1.000
    27        -0.584       1.000
    28        -0.242       0.996
    29        -0.086       0.983
    30         0.577       0.070
    31         0.752       0.013
    32         3.647       0.000
    33         4.184       0.000
    34         5.791       0.000
    35         5.830       0.000
    36         6.233       0.000
    37         6.454       0.000
   ...
    39         7.195       0.000

kpt = [-0.455, -0.273, 0.000], weight = 0.008:
  Band      eig [eV]   occ [0-1]
     0       -63.423       1.000
   ...
    22        -1.459       1.000
    23        -1.333       1.000
    24        -1.199       1.000
    25        -0.893       1.000
    26        -0.672       1.000
    27        -0.552       1.000
    28        -0.179       0.993
    29         0.067       0.925
    30         0.558       0.084
    31         0.860       0.004
    32         3.416       0.000
    33         4.148       0.000
    34         5.295       0.000
    35         5.790       0.000
    36         6.004       0.000
    37         6.056       0.000
   ...
    39         6.904       0.000
(only showing first 3 out of 121 k-points)

Gap: 0.351 eV
Transition (v -> c):
  (s=0, k=93, n=29, [0.27, 0.00, 0.00]) -> (s=0, k=65, n=30, [0.00, 0.45, 0.00])
# Writing to gsq-14.gpw (mode='')

---

timing:  # [seconds]
  Total: 499.424  # ━━━━━━━━━━━━━━━━━━━━━━━━━━━━━━━━━━━━━━━━━━━━━━━━━━━━━━━━━
  Init:    7.596  # ━
  SCF:   477.593  # ━━━━━━━━━━━━━━━━━━━━━━━━━━━━━━━━━━━━━━━━━━━━━━━━━━━━━━╸

Max RSS: 700.859  # MiB
