#  __  _  _
# | _ |_)|_||  |
# |__||  | ||/\| - 24.1.0

User:   s194099@n-62-29-14
Date:   Wed Apr 17 14:18:13 2024
Arch:   x86_64
Pid:    32167
CWD:    /zhome/84/5/147090/10302_NM/NiI2
Python: 3.8.5
gpaw:   /zhome/84/5/147090/venv1/gpaw/gpaw (10808453a8)
_gpaw:  /zhome/84/5/147090/venv1/gpaw/
        _gpaw.cpython-38-x86_64-linux-gnu.so (10808453a8)
ase:    /zhome/84/5/147090/venv1/ase/ase (version 3.23.0b1-c36115a2db)
numpy:  /zhome/84/5/147090/venv1/lib/python3.8/site-packages/numpy (version 1.24.4)
scipy:  /zhome/84/5/147090/venv1/lib/python3.8/site-packages/scipy (version 1.10.1)
libxc:  4.3.4
units:  Angstrom and eV
cores: 12
OpenMP: False
OMP_NUM_THREADS: 1

---
input parameters:
  kpts: 
    density: 6.0
    gamma: True
  magmoms: [[1, 0, 0], [0, 0, 0], [0, 0, 0]]
  mixer: 
    backend: 'pulay'
    beta: 0.05
    method: 'sum'
    nmaxold: 5
    weight: 100
  mode: 
    name: 'pw'
    ecut: 600
    qspiral: array([0.3, 0. , 0. ])
  parallel: 
    kpt: None
    domain: 1
    band: 1
    order: 'kdb'
    stridebands: False
    augment_grids: False
    sl_auto: False
    sl_default: None
    sl_diagonalize: None
    sl_inverse_cholesky: None
    sl_lcao: None
    sl_lrtddft: None
    use_elpa: False
    elpasolver: '2stage'
    buffer_size: None
    gpu: False
  symmetry: 
    point_group: False
    time_reversal: False
  xc: 
    name: 'LDA'

#                        
#                        
#                        
#                        
#                        
#              I         
#                        
#        Ni              
#          I             
#                        
#                        
#                        
#                        
#                        

atoms: [  # symbols, positions [Ang] and initial magnetic moments
  [ Ni, [   0.000000,    0.000000,    5.513573], [ 1.000,  0.000,  0.000]], # 0
  [  I, [   1.984831,    1.145943,    7.027147], [ 0.000,  0.000,  0.000]], # 1
  [  I, [  -0.000000,    2.291886,    4.000000], [ 0.000,  0.000,  0.000]]] # 2

cell: [  # Ang
#     x            y            z
  [   3.969662,    0.000000,    0.000000],
  [  -1.984831,    3.437828,    0.000000],
  [   0.000000,   -0.000000,   11.027147]]

periodic: [True      , True      , False     ]
lengths:  [  3.969662,   3.969662,  11.027147]  # Ang
angles:   [ 90.000000,  90.000000, 120.000000]

symmetry:
  number of symmetries: 1
  rotations: [
    [[ 1,  0,  0], [ 0,  1,  0], [ 0,  0,  1]]]

bz sampling:
  number of bz points: 121
  number of ibz points: 121
  monkhorst-pack size: [11, 11, 1]
  monkhorst-pack shift: [0, 0, 0]
  points and weights: [
    [[ -0.45454545,  -0.45454545,   0.00000000], 0.00826446],  # 0
    [[ -0.45454545,  -0.36363636,   0.00000000], 0.00826446],  # 1
    [[ -0.45454545,  -0.27272727,   0.00000000], 0.00826446],  # 2
    [[ -0.45454545,  -0.18181818,   0.00000000], 0.00826446],  # 3
    [[ -0.45454545,  -0.09090909,   0.00000000], 0.00826446],  # 4
    [[ -0.45454545,   0.00000000,   0.00000000], 0.00826446],  # 5
    [[ -0.45454545,   0.09090909,   0.00000000], 0.00826446],  # 6
    [[ -0.45454545,   0.18181818,   0.00000000], 0.00826446],  # 7
    [[ -0.45454545,   0.27272727,   0.00000000], 0.00826446],  # 8
    [[ -0.45454545,   0.36363636,   0.00000000], 0.00826446],  # 9
    # ...
    [[  0.45454545,   0.45454545,   0.00000000], 0.00826446]]  # 120

plane wave coefficients: 5038
cutoff: 600.0 eV

spin-components: 4  # (non-collinear spins)
bands: 40
valence electrons: 30.0
spin-degeneracy: 1
dtype: complex128

memory:
    wave functions: 778_736_640  # bytes  (64_894_720 per core)

parallelization:
    kpt:    12
    domain: 1
    band:   1

density:
  components: 4
  grid points: [24 24 63]
  charge: 0.0  # |e|

potential:
  grid points: [24 24 63]

species:
  Ni:
    name: Nickel
    id: 1802175e8de9ea26d9f4394ec1a7d564
    Z: 28.0
    valence: 16
    core: 12
    charge: 0.0
    file: /zhome/86/d/1666/PAW/gpaw-setups-0.9.20000/Ni.LDA.gz
    compensation charges: {type: gauss,
                           rc: 0.36,
                           lmax: 2}
    cutoffs: {filter: 2.14,
              core: 1.98}
    valence states:
      #              energy  rcut
      - 4s(2.00)    -5.858   1.164
      - 3p(6.00)   -71.266   1.207
      - 4p(0.00)    -1.338   1.207
      - 3d(8.00)    -9.141   1.138
      -  s          21.353   1.164
      -  d          18.071   1.138
  
    # Using partial waves for Ni as LCAO basis

  I:
    name: Iodine
    id: b559721c0c096a7b4c8fc0e0f4de5cf4
    Z: 53.0
    valence: 7
    core: 46
    charge: 0.0
    file: /zhome/86/d/1666/PAW/gpaw-setups-0.9.20000/I.LDA.gz
    compensation charges: {type: gauss,
                           rc: 0.37,
                           lmax: 2}
    cutoffs: {filter: 2.06,
              core: 2.90}
    valence states:
      #              energy  rcut
      - 5s(2.00)   -17.626   1.164
      - 5p(5.00)    -7.241   1.164
      -  s           9.585   1.164
      -  p          19.970   1.164
      -  d           0.000   1.164
  
    # Using partial waves for I as LCAO basis

Reference energy: -428067.566327  # eV

eigensolver:
  name: 'Davidson'
  niter: 2
  converge_bands: 'occupied'
Density mixing:
  Method: sum
  Backend: pulay
  Linear mixing parameter: 0.05
  old densities: 5
  Damping of long wavelength oscillations: 100
occupation numbers:
  Fermi-Dirac:
    width: 0.1000  # eV
  

poisson solver:
  ecut: 4800.0  # eV

xc functional:
  name: None

convergence criteria:
- Maximum [total energy] change in last 3 cyles: 0.0005 eV / valence electron
- Maximum integral of absolute [dens]ity change: 0.0001 electrons / valence electron
- Maximum integral of absolute [eigenst]ate change: 4e-08 eV^2 / valence electron
maximum number of iterations: 333

#      iter     time        total  log10-change:
#                          energy   eigst   dens
# iter:   1 14:18:31   -13.655995                  +1.0,+0.0,+0.0
# iter:   2 14:18:42   -12.655059   -0.10  -1.31   +0.9,+0.0,+0.0
# iter:   3 14:18:53   -12.226717   -0.58  -1.45   +1.0,+0.0,-0.0
# iter:   4 14:19:04   -12.298373   -1.34  -1.68   +1.1,+0.0,+0.0
# iter:   5 14:19:14   -12.526419   -1.53  -1.66   +1.2,+0.0,+0.0
# iter:   6 14:19:25   -12.306272   -1.82  -1.76   +1.2,+0.0,+0.0
# iter:   7 14:19:36   -12.294131   -2.25  -2.16   +1.3,+0.0,+0.0
# iter:   8 14:19:47   -12.292054c  -2.53  -2.33   +1.3,+0.0,+0.0
# iter:   9 14:19:58   -12.293771c  -2.77  -2.68   +1.4,+0.0,+0.0
# iter:  10 14:20:08   -12.294566c  -3.12  -2.99   +1.4,+0.0,-0.0
# iter:  11 14:20:19   -12.298003c  -2.99  -2.99   +1.4,+0.0,-0.0
# iter:  12 14:20:30   -12.298979c  -3.54  -2.72   +1.4,+0.0,-0.0
# iter:  13 14:20:41   -12.298629c  -3.63  -3.06   +1.4,+0.0,-0.0
# iter:  14 14:20:52   -12.298525c  -3.97  -3.60   +1.4,+0.0,+0.0
# iter:  15 14:21:02   -12.299163c  -4.13  -3.52   +1.4,+0.0,+0.0
# iter:  16 14:21:13   -12.299278c  -4.27  -3.46   +1.4,+0.0,+0.0
# iter:  17 14:21:24   -12.299389c  -4.52  -3.79   +1.4,+0.0,+0.0
# iter:  18 14:21:35   -12.299525c  -4.70  -3.85   +1.4,+0.0,+0.0
# iter:  19 14:21:45   -12.299895c  -4.69  -3.86   +1.4,+0.0,+0.0
# iter:  20 14:21:56   -12.299890c  -5.00  -3.74   +1.4,+0.0,+0.0
# iter:  21 14:22:07   -12.300227c  -5.24  -4.03c  +1.4,+0.0,+0.0
# iter:  22 14:22:18   -12.300393c  -5.32  -3.97   +1.4,+0.0,+0.0
# iter:  23 14:22:29   -12.300593c  -5.57  -4.12c  +1.5,+0.0,+0.0
# iter:  24 14:22:39   -12.300840c  -5.55  -4.21c  +1.5,+0.0,+0.0
# iter:  25 14:22:50   -12.300875c  -5.95  -4.39c  +1.5,+0.0,+0.0
# iter:  26 14:23:01   -12.300972c  -6.09  -4.40c  +1.5,+0.0,+0.0
# iter:  27 14:23:12   -12.300867c  -6.18  -4.40c  +1.5,+0.0,+0.0
# iter:  28 14:23:22   -12.301013c  -6.38  -4.42c  +1.5,+0.0,+0.0
# iter:  29 14:23:33   -12.300991c  -6.65  -5.03c  +1.5,+0.0,+0.0
# iter:  30 14:23:44   -12.300997c  -6.83  -5.11c  +1.5,+0.0,+0.0
# iter:  31 14:23:54   -12.300991c  -6.99  -5.18c  +1.5,+0.0,+0.0
# iter:  32 14:24:05   -12.301003c  -7.17  -5.26c  +1.5,+0.0,+0.0
# iter:  33 14:24:16   -12.301013c  -7.32  -5.32c  +1.5,+0.0,+0.0
# iter:  34 14:24:27   -12.301015c  -7.51c -5.35c  +1.5,+0.0,+0.0
scf_steps: 34
energies:  # eV
  coulomb:          -7.741178
  zero:              0.066526
  xc:              -14.902464
  external:          0.000000
  kinetic:          10.298061
  spinorbit:         0.000000
  entropy:          -0.043921
  total:           -12.322976
  extrapolated:    -12.301015

dipole moment: [-3.806335, -6.617118, -2.560230]  # |e|*Ang

total magnetic moment: [1.462327, 0.022658, 0.000000]

local magnetic moments: [
  [ 1.123593, -0.000000,  0.000000],  # Ni 0
  [ 0.022126, -0.111395,  0.000000],  # I  1
  [ 0.099105, -0.055466,  0.000000]]  # I  2


Fermi level: 0.343 eV

kpt = [-0.455, -0.455, 0.000], weight = 0.008:
  Band      eig [eV]   occ [0-1]
     0       -63.433       1.000
   ...
    22        -1.510       1.000
    23        -1.451       1.000
    24        -1.268       1.000
    25        -0.770       1.000
    26        -0.649       1.000
    27        -0.570       1.000
    28        -0.283       0.998
    29        -0.072       0.985
    30         0.679       0.034
    31         0.819       0.008
    32         3.291       0.000
    33         4.115       0.000
    34         5.354       0.000
    35         5.955       0.000
    36         6.031       0.000
    37         6.478       0.000
   ...
    39         7.186       0.000

kpt = [-0.455, -0.364, 0.000], weight = 0.008:
  Band      eig [eV]   occ [0-1]
     0       -63.433       1.000
   ...
    22        -1.506       1.000
    23        -1.345       1.000
    24        -1.308       1.000
    25        -0.815       1.000
    26        -0.605       1.000
    27        -0.582       1.000
    28        -0.227       0.997
    29        -0.131       0.991
    30         0.648       0.045
    31         0.803       0.010
    32         3.361       0.000
    33         4.108       0.000
    34         5.283       0.000
    35         5.989       0.000
    36         6.344       0.000
    37         6.464       0.000
   ...
    39         7.056       0.000

kpt = [-0.455, -0.273, 0.000], weight = 0.008:
  Band      eig [eV]   occ [0-1]
     0       -63.433       1.000
   ...
    22        -1.431       1.000
    23        -1.355       1.000
    24        -1.198       1.000
    25        -0.809       1.000
    26        -0.608       1.000
    27        -0.536       1.000
    28        -0.305       0.998
    29        -0.134       0.992
    30         0.537       0.126
    31         0.745       0.018
    32         3.958       0.000
    33         4.146       0.000
    34         5.698       0.000
    35         6.026       0.000
    36         6.069       0.000
    37         6.589       0.000
   ...
    39         6.988       0.000
(only showing first 3 out of 121 k-points)

Gap: 0.209 eV
Transition (v -> c):
  (s=0, k=38, n=29, [-0.18, 0.00, 0.00]) -> (s=0, k=2, n=30, [-0.45, -0.27, 0.00])
# Writing to gsq-06.gpw (mode='')

---

timing:  # [seconds]
  Total: 374.358  # ━━━━━━━━━━━━━━━━━━━━━━━━━━━━━━━━━━━━━━━━━━━━━━━━━━━━━━━━━
  Init:    7.559  # ━
  SCF:   366.329  # ━━━━━━━━━━━━━━━━━━━━━━━━━━━━━━━━━━━━━━━━━━━━━━━━━━━━━━━━

Max RSS: 514.465  # MiB
