#  __  _  _
# | _ |_)|_||  |
# |__||  | ||/\| - 24.1.0

User:   s194099@n-62-29-14
Date:   Wed Apr 17 16:40:31 2024
Arch:   x86_64
Pid:    32167
CWD:    /zhome/84/5/147090/10302_NM/NiI2
Python: 3.8.5
gpaw:   /zhome/84/5/147090/venv1/gpaw/gpaw (10808453a8)
_gpaw:  /zhome/84/5/147090/venv1/gpaw/
        _gpaw.cpython-38-x86_64-linux-gnu.so (10808453a8)
ase:    /zhome/84/5/147090/venv1/ase/ase (version 3.23.0b1-c36115a2db)
numpy:  /zhome/84/5/147090/venv1/lib/python3.8/site-packages/numpy (version 1.24.4)
scipy:  /zhome/84/5/147090/venv1/lib/python3.8/site-packages/scipy (version 1.10.1)
libxc:  4.3.4
units:  Angstrom and eV
cores: 12
OpenMP: False
OMP_NUM_THREADS: 1

---
input parameters:
  kpts: 
    density: 6.0
    gamma: True
  magmoms: [[1, 0, 0], [0, 0, 0], [0, 0, 0]]
  mixer: 
    backend: 'pulay'
    beta: 0.05
    method: 'sum'
    nmaxold: 5
    weight: 100
  mode: 
    name: 'pw'
    ecut: 600
    qspiral: array([0.0952381, 0.0952381, 0.       ])
  parallel: 
    kpt: None
    domain: 1
    band: 1
    order: 'kdb'
    stridebands: False
    augment_grids: False
    sl_auto: False
    sl_default: None
    sl_diagonalize: None
    sl_inverse_cholesky: None
    sl_lcao: None
    sl_lrtddft: None
    use_elpa: False
    elpasolver: '2stage'
    buffer_size: None
    gpu: False
  symmetry: 
    point_group: False
    time_reversal: False
  xc: 
    name: 'LDA'

#                        
#                        
#                        
#                        
#                        
#              I         
#                        
#        Ni              
#          I             
#                        
#                        
#                        
#                        
#                        

atoms: [  # symbols, positions [Ang] and initial magnetic moments
  [ Ni, [   0.000000,    0.000000,    5.513573], [ 1.000,  0.000,  0.000]], # 0
  [  I, [   1.984831,    1.145943,    7.027147], [ 0.000,  0.000,  0.000]], # 1
  [  I, [  -0.000000,    2.291886,    4.000000], [ 0.000,  0.000,  0.000]]] # 2

cell: [  # Ang
#     x            y            z
  [   3.969662,    0.000000,    0.000000],
  [  -1.984831,    3.437828,    0.000000],
  [   0.000000,   -0.000000,   11.027147]]

periodic: [True      , True      , False     ]
lengths:  [  3.969662,   3.969662,  11.027147]  # Ang
angles:   [ 90.000000,  90.000000, 120.000000]

symmetry:
  number of symmetries: 1
  rotations: [
    [[ 1,  0,  0], [ 0,  1,  0], [ 0,  0,  1]]]

bz sampling:
  number of bz points: 121
  number of ibz points: 121
  monkhorst-pack size: [11, 11, 1]
  monkhorst-pack shift: [0, 0, 0]
  points and weights: [
    [[ -0.45454545,  -0.45454545,   0.00000000], 0.00826446],  # 0
    [[ -0.45454545,  -0.36363636,   0.00000000], 0.00826446],  # 1
    [[ -0.45454545,  -0.27272727,   0.00000000], 0.00826446],  # 2
    [[ -0.45454545,  -0.18181818,   0.00000000], 0.00826446],  # 3
    [[ -0.45454545,  -0.09090909,   0.00000000], 0.00826446],  # 4
    [[ -0.45454545,   0.00000000,   0.00000000], 0.00826446],  # 5
    [[ -0.45454545,   0.09090909,   0.00000000], 0.00826446],  # 6
    [[ -0.45454545,   0.18181818,   0.00000000], 0.00826446],  # 7
    [[ -0.45454545,   0.27272727,   0.00000000], 0.00826446],  # 8
    [[ -0.45454545,   0.36363636,   0.00000000], 0.00826446],  # 9
    # ...
    [[  0.45454545,   0.45454545,   0.00000000], 0.00826446]]  # 120

plane wave coefficients: 5038
cutoff: 600.0 eV

spin-components: 4  # (non-collinear spins)
bands: 40
valence electrons: 30.0
spin-degeneracy: 1
dtype: complex128

memory:
    wave functions: 778_736_640  # bytes  (64_894_720 per core)

parallelization:
    kpt:    12
    domain: 1
    band:   1

density:
  components: 4
  grid points: [24 24 63]
  charge: 0.0  # |e|

potential:
  grid points: [24 24 63]

species:
  Ni:
    name: Nickel
    id: 1802175e8de9ea26d9f4394ec1a7d564
    Z: 28.0
    valence: 16
    core: 12
    charge: 0.0
    file: /zhome/86/d/1666/PAW/gpaw-setups-0.9.20000/Ni.LDA.gz
    compensation charges: {type: gauss,
                           rc: 0.36,
                           lmax: 2}
    cutoffs: {filter: 2.14,
              core: 1.98}
    valence states:
      #              energy  rcut
      - 4s(2.00)    -5.858   1.164
      - 3p(6.00)   -71.266   1.207
      - 4p(0.00)    -1.338   1.207
      - 3d(8.00)    -9.141   1.138
      -  s          21.353   1.164
      -  d          18.071   1.138
  
    # Using partial waves for Ni as LCAO basis

  I:
    name: Iodine
    id: b559721c0c096a7b4c8fc0e0f4de5cf4
    Z: 53.0
    valence: 7
    core: 46
    charge: 0.0
    file: /zhome/86/d/1666/PAW/gpaw-setups-0.9.20000/I.LDA.gz
    compensation charges: {type: gauss,
                           rc: 0.37,
                           lmax: 2}
    cutoffs: {filter: 2.06,
              core: 2.90}
    valence states:
      #              energy  rcut
      - 5s(2.00)   -17.626   1.164
      - 5p(5.00)    -7.241   1.164
      -  s           9.585   1.164
      -  p          19.970   1.164
      -  d           0.000   1.164
  
    # Using partial waves for I as LCAO basis

Reference energy: -428067.566327  # eV

eigensolver:
  name: 'Davidson'
  niter: 2
  converge_bands: 'occupied'
Density mixing:
  Method: sum
  Backend: pulay
  Linear mixing parameter: 0.05
  old densities: 5
  Damping of long wavelength oscillations: 100
occupation numbers:
  Fermi-Dirac:
    width: 0.1000  # eV
  

poisson solver:
  ecut: 4800.0  # eV

xc functional:
  name: None

convergence criteria:
- Maximum [total energy] change in last 3 cyles: 0.0005 eV / valence electron
- Maximum integral of absolute [dens]ity change: 0.0001 electrons / valence electron
- Maximum integral of absolute [eigenst]ate change: 4e-08 eV^2 / valence electron
maximum number of iterations: 333

#      iter     time        total  log10-change:
#                          energy   eigst   dens
# iter:   1 16:40:49   -13.890512                  +1.0,+0.0,+0.0
# iter:   2 16:41:00   -12.695819   -0.41  -1.31   +1.0,+0.0,-0.0
# iter:   3 16:41:11   -12.242453   -0.73  -1.45   +1.2,+0.0,+0.0
# iter:   4 16:41:22   -12.302383   -1.55  -1.68   +1.3,+0.0,-0.0
# iter:   5 16:41:33   -12.524595   -1.69  -1.66   +1.4,+0.0,-0.0
# iter:   6 16:41:45   -12.314672   -1.97  -1.77   +1.5,+0.0,-0.0
# iter:   7 16:41:56   -12.309294   -2.60  -2.18   +1.5,+0.0,-0.0
# iter:   8 16:42:07   -12.303754c  -2.75  -2.30   +1.6,+0.0,-0.0
# iter:   9 16:42:18   -12.306364c  -3.18  -2.80   +1.6,+0.0,-0.0
# iter:  10 16:42:29   -12.307798c  -3.64  -2.97   +1.6,+0.0,-0.0
# iter:  11 16:42:39   -12.309662c  -3.59  -3.10   +1.6,+0.0,-0.0
# iter:  12 16:42:50   -12.310252c  -4.18  -3.48   +1.7,+0.0,-0.0
# iter:  13 16:43:01   -12.310359c  -4.41  -3.72   +1.7,+0.0,-0.0
# iter:  14 16:43:12   -12.310475c  -4.62  -3.76   +1.7,+0.0,-0.0
# iter:  15 16:43:23   -12.310751c  -4.81  -3.80   +1.7,+0.0,-0.0
# iter:  16 16:43:34   -12.310767c  -5.02  -3.81   +1.7,+0.0,-0.0
# iter:  17 16:43:45   -12.310802c  -5.20  -3.81   +1.7,+0.0,-0.0
# iter:  18 16:43:56   -12.310795c  -5.39  -3.81   +1.7,+0.0,+0.0
# iter:  19 16:44:07   -12.311283c  -5.39  -3.81   +1.7,+0.0,+0.0
# iter:  20 16:44:18   -12.312117c  -5.14  -3.93   +1.7,+0.0,+0.0
# iter:  21 16:44:28   -12.312271c  -5.78  -4.27c  +1.7,+0.0,+0.0
# iter:  22 16:44:39   -12.312338c  -6.09  -4.42c  +1.7,+0.0,+0.0
# iter:  23 16:44:50   -12.312271c  -6.44  -4.74c  +1.7,+0.0,+0.0
# iter:  24 16:45:01   -12.312291c  -6.66  -4.90c  +1.7,+0.0,+0.0
# iter:  25 16:45:11   -12.312293c  -6.84  -4.91c  +1.7,+0.0,+0.0
# iter:  26 16:45:22   -12.312282c  -7.00  -4.92c  +1.7,+0.0,+0.0
# iter:  27 16:45:33   -12.312243c  -7.17  -4.97c  +1.7,+0.0,+0.0
# iter:  28 16:45:44   -12.312230c  -7.40  -4.96c  +1.7,+0.0,+0.0
# iter:  29 16:45:54   -12.312258c  -7.59c -4.89c  +1.7,+0.0,+0.0
scf_steps: 29
energies:  # eV
  coulomb:          -7.805537
  zero:              0.066470
  xc:              -14.928539
  external:          0.000000
  kinetic:          10.375355
  spinorbit:         0.000000
  entropy:          -0.040015
  total:           -12.332266
  extrapolated:    -12.312258

dipole moment: [-4.049143, -7.012814, -4.001522]  # |e|*Ang

total magnetic moment: [1.695250, 0.024772, 0.000000]

local magnetic moments: [
  [ 1.139569, -0.000000,  0.000000],  # Ni 0
  [ 0.132522, -0.090344,  0.000000],  # I  1
  [ 0.132514, -0.090355,  0.000000]]  # I  2


Fermi level: 0.335 eV

kpt = [-0.455, -0.455, 0.000], weight = 0.008:
  Band      eig [eV]   occ [0-1]
     0       -63.447       1.000
   ...
    22        -1.602       1.000
    23        -1.454       1.000
    24        -1.390       1.000
    25        -0.775       1.000
    26        -0.633       1.000
    27        -0.610       1.000
    28        -0.153       0.992
    29        -0.112       0.989
    30         0.817       0.008
    31         0.836       0.007
    32         3.081       0.000
    33         3.871       0.000
    34         5.130       0.000
    35         6.070       0.000
    36         6.226       0.000
    37         6.329       0.000
   ...
    39         6.780       0.000

kpt = [-0.455, -0.364, 0.000], weight = 0.008:
  Band      eig [eV]   occ [0-1]
     0       -63.447       1.000
   ...
    22        -1.536       1.000
    23        -1.419       1.000
    24        -1.308       1.000
    25        -0.772       1.000
    26        -0.626       1.000
    27        -0.571       1.000
    28        -0.286       0.998
    29        -0.129       0.990
    30         0.677       0.032
    31         0.792       0.010
    32         3.351       0.000
    33         4.119       0.000
    34         5.524       0.000
    35         6.113       0.000
    36         6.178       0.000
    37         6.406       0.000
   ...
    39         7.163       0.000

kpt = [-0.455, -0.273, 0.000], weight = 0.008:
  Band      eig [eV]   occ [0-1]
     0       -63.447       1.000
   ...
    22        -1.502       1.000
    23        -1.396       1.000
    24        -1.230       1.000
    25        -0.771       1.000
    26        -0.625       1.000
    27        -0.571       1.000
    28        -0.357       0.999
    29        -0.129       0.990
    30         0.536       0.118
    31         0.776       0.012
    32         3.888       0.000
    33         4.077       0.000
    34         5.942       0.000
    35         6.275       0.000
    36         6.431       0.000
    37         6.536       0.000
   ...
    39         7.166       0.000
(only showing first 3 out of 121 k-points)

Gap: 0.175 eV
Transition (v -> c):
  (s=0, k=60, n=29, [0.00, 0.00, 0.00]) -> (s=0, k=96, n=30, [0.27, 0.27, 0.00])
# Writing to gsq-26.gpw (mode='')

---

timing:  # [seconds]
  Total: 324.051  # ━━━━━━━━━━━━━━━━━━━━━━━━━━━━━━━━━━━━━━━━━━━━━━━━━━━━━━━━━
  Init:    7.545  # ━╸
  SCF:   315.431  # ━━━━━━━━━━━━━━━━━━━━━━━━━━━━━━━━━━━━━━━━━━━━━━━━━━━━━━━╸

Max RSS: 817.230  # MiB
