#  __  _  _
# | _ |_)|_||  |
# |__||  | ||/\| - 24.1.0

User:   s194099@n-62-29-14
Date:   Wed Apr 17 15:30:53 2024
Arch:   x86_64
Pid:    32167
CWD:    /zhome/84/5/147090/10302_NM/NiI2
Python: 3.8.5
gpaw:   /zhome/84/5/147090/venv1/gpaw/gpaw (10808453a8)
_gpaw:  /zhome/84/5/147090/venv1/gpaw/
        _gpaw.cpython-38-x86_64-linux-gnu.so (10808453a8)
ase:    /zhome/84/5/147090/venv1/ase/ase (version 3.23.0b1-c36115a2db)
numpy:  /zhome/84/5/147090/venv1/lib/python3.8/site-packages/numpy (version 1.24.4)
scipy:  /zhome/84/5/147090/venv1/lib/python3.8/site-packages/scipy (version 1.10.1)
libxc:  4.3.4
units:  Angstrom and eV
cores: 12
OpenMP: False
OMP_NUM_THREADS: 1

---
input parameters:
  kpts: 
    density: 6.0
    gamma: True
  magmoms: [[1, 0, 0], [0, 0, 0], [0, 0, 0]]
  mixer: 
    backend: 'pulay'
    beta: 0.05
    method: 'sum'
    nmaxold: 5
    weight: 100
  mode: 
    name: 'pw'
    ecut: 600
    qspiral: array([0.33333333, 0.33333333, 0.        ])
  parallel: 
    kpt: None
    domain: 1
    band: 1
    order: 'kdb'
    stridebands: False
    augment_grids: False
    sl_auto: False
    sl_default: None
    sl_diagonalize: None
    sl_inverse_cholesky: None
    sl_lcao: None
    sl_lrtddft: None
    use_elpa: False
    elpasolver: '2stage'
    buffer_size: None
    gpu: False
  symmetry: 
    point_group: False
    time_reversal: False
  xc: 
    name: 'LDA'

#                        
#                        
#                        
#                        
#                        
#              I         
#                        
#        Ni              
#          I             
#                        
#                        
#                        
#                        
#                        

atoms: [  # symbols, positions [Ang] and initial magnetic moments
  [ Ni, [   0.000000,    0.000000,    5.513573], [ 1.000,  0.000,  0.000]], # 0
  [  I, [   1.984831,    1.145943,    7.027147], [ 0.000,  0.000,  0.000]], # 1
  [  I, [  -0.000000,    2.291886,    4.000000], [ 0.000,  0.000,  0.000]]] # 2

cell: [  # Ang
#     x            y            z
  [   3.969662,    0.000000,    0.000000],
  [  -1.984831,    3.437828,    0.000000],
  [   0.000000,   -0.000000,   11.027147]]

periodic: [True      , True      , False     ]
lengths:  [  3.969662,   3.969662,  11.027147]  # Ang
angles:   [ 90.000000,  90.000000, 120.000000]

symmetry:
  number of symmetries: 1
  rotations: [
    [[ 1,  0,  0], [ 0,  1,  0], [ 0,  0,  1]]]

bz sampling:
  number of bz points: 121
  number of ibz points: 121
  monkhorst-pack size: [11, 11, 1]
  monkhorst-pack shift: [0, 0, 0]
  points and weights: [
    [[ -0.45454545,  -0.45454545,   0.00000000], 0.00826446],  # 0
    [[ -0.45454545,  -0.36363636,   0.00000000], 0.00826446],  # 1
    [[ -0.45454545,  -0.27272727,   0.00000000], 0.00826446],  # 2
    [[ -0.45454545,  -0.18181818,   0.00000000], 0.00826446],  # 3
    [[ -0.45454545,  -0.09090909,   0.00000000], 0.00826446],  # 4
    [[ -0.45454545,   0.00000000,   0.00000000], 0.00826446],  # 5
    [[ -0.45454545,   0.09090909,   0.00000000], 0.00826446],  # 6
    [[ -0.45454545,   0.18181818,   0.00000000], 0.00826446],  # 7
    [[ -0.45454545,   0.27272727,   0.00000000], 0.00826446],  # 8
    [[ -0.45454545,   0.36363636,   0.00000000], 0.00826446],  # 9
    # ...
    [[  0.45454545,   0.45454545,   0.00000000], 0.00826446]]  # 120

plane wave coefficients: 5038
cutoff: 600.0 eV

spin-components: 4  # (non-collinear spins)
bands: 40
valence electrons: 30.0
spin-degeneracy: 1
dtype: complex128

memory:
    wave functions: 778_736_640  # bytes  (64_894_720 per core)

parallelization:
    kpt:    12
    domain: 1
    band:   1

density:
  components: 4
  grid points: [24 24 63]
  charge: 0.0  # |e|

potential:
  grid points: [24 24 63]

species:
  Ni:
    name: Nickel
    id: 1802175e8de9ea26d9f4394ec1a7d564
    Z: 28.0
    valence: 16
    core: 12
    charge: 0.0
    file: /zhome/86/d/1666/PAW/gpaw-setups-0.9.20000/Ni.LDA.gz
    compensation charges: {type: gauss,
                           rc: 0.36,
                           lmax: 2}
    cutoffs: {filter: 2.14,
              core: 1.98}
    valence states:
      #              energy  rcut
      - 4s(2.00)    -5.858   1.164
      - 3p(6.00)   -71.266   1.207
      - 4p(0.00)    -1.338   1.207
      - 3d(8.00)    -9.141   1.138
      -  s          21.353   1.164
      -  d          18.071   1.138
  
    # Using partial waves for Ni as LCAO basis

  I:
    name: Iodine
    id: b559721c0c096a7b4c8fc0e0f4de5cf4
    Z: 53.0
    valence: 7
    core: 46
    charge: 0.0
    file: /zhome/86/d/1666/PAW/gpaw-setups-0.9.20000/I.LDA.gz
    compensation charges: {type: gauss,
                           rc: 0.37,
                           lmax: 2}
    cutoffs: {filter: 2.06,
              core: 2.90}
    valence states:
      #              energy  rcut
      - 5s(2.00)   -17.626   1.164
      - 5p(5.00)    -7.241   1.164
      -  s           9.585   1.164
      -  p          19.970   1.164
      -  d           0.000   1.164
  
    # Using partial waves for I as LCAO basis

Reference energy: -428067.566327  # eV

eigensolver:
  name: 'Davidson'
  niter: 2
  converge_bands: 'occupied'
Density mixing:
  Method: sum
  Backend: pulay
  Linear mixing parameter: 0.05
  old densities: 5
  Damping of long wavelength oscillations: 100
occupation numbers:
  Fermi-Dirac:
    width: 0.1000  # eV
  

poisson solver:
  ecut: 4800.0  # eV

xc functional:
  name: None

convergence criteria:
- Maximum [total energy] change in last 3 cyles: 0.0005 eV / valence electron
- Maximum integral of absolute [dens]ity change: 0.0001 electrons / valence electron
- Maximum integral of absolute [eigenst]ate change: 4e-08 eV^2 / valence electron
maximum number of iterations: 333

#      iter     time        total  log10-change:
#                          energy   eigst   dens
# iter:   1 15:31:11   -12.670766                  +1.0,+0.0,+0.0
# iter:   2 15:31:22   -12.456302   +0.45  -1.31   +0.7,-0.0,+0.0
# iter:   3 15:31:32   -12.178815   -0.25  -1.45   +0.7,-0.0,+0.0
# iter:   4 15:31:43   -12.215632   -0.88  -1.68   +0.8,+0.0,-0.0
# iter:   5 15:31:54   -12.594037   -1.06  -1.69   +0.8,+0.0,-0.0
# iter:   6 15:32:05   -12.280899   -1.38  -1.68   +0.8,+0.0,-0.0
# iter:   7 15:32:15   -12.295148   -1.73  -2.21   +0.8,+0.0,-0.0
# iter:   8 15:32:26   -12.280634c  -1.89  -2.26   +0.9,+0.0,-0.0
# iter:   9 15:32:37   -12.282149c  -2.11  -2.73   +0.9,+0.0,-0.0
# iter:  10 15:32:48   -12.286139c  -2.27  -2.91   +0.9,+0.0,-0.0
# iter:  11 15:32:58   -12.291422c  -2.31  -2.84   +1.0,+0.0,-0.0
# iter:  12 15:33:09   -12.289358c  -2.60  -2.69   +1.0,-0.0,-0.0
# iter:  13 15:33:20   -12.289660c  -2.76  -3.25   +1.0,-0.0,-0.0
# iter:  14 15:33:31   -12.291108c  -2.87  -3.45   +1.0,+0.0,-0.0
# iter:  15 15:33:41   -12.290403c  -3.06  -3.12   +1.0,+0.0,-0.0
# iter:  16 15:33:52   -12.290741c  -3.21  -3.65   +1.0,+0.0,-0.0
# iter:  17 15:34:03   -12.290833c  -3.36  -3.43   +1.0,-0.0,-0.0
# iter:  18 15:34:14   -12.290678c  -3.50  -3.70   +1.0,+0.0,-0.0
# iter:  19 15:34:24   -12.290886c  -3.66  -3.72   +1.0,+0.0,-0.0
# iter:  20 15:34:35   -12.290854c  -3.82  -3.69   +1.0,+0.0,-0.0
# iter:  21 15:34:46   -12.290829c  -3.97  -3.71   +1.0,-0.0,-0.0
# iter:  22 15:34:56   -12.290979c  -4.13  -3.68   +1.0,-0.0,-0.0
# iter:  23 15:35:07   -12.290774c  -4.28  -3.61   +1.0,-0.0,-0.0
# iter:  24 15:35:18   -12.290996c  -4.44  -3.73   +1.0,-0.0,-0.0
# iter:  25 15:35:29   -12.290900c  -4.60  -3.75   +1.0,-0.0,+0.0
# iter:  26 15:35:39   -12.291022c  -4.75  -3.84   +1.0,-0.0,+0.0
# iter:  27 15:35:50   -12.290962c  -4.90  -3.85   +1.0,-0.0,+0.0
# iter:  28 15:36:01   -12.291114c  -5.03  -3.84   +1.0,-0.0,-0.0
# iter:  29 15:36:11   -12.290851c  -5.12  -3.89   +1.0,-0.0,+0.0
# iter:  30 15:36:22   -12.291073c  -5.28  -3.67   +1.0,-0.0,+0.0
# iter:  31 15:36:33   -12.291096c  -5.53  -3.84   +1.0,-0.0,+0.0
# iter:  32 15:36:44   -12.291416c  -5.57  -3.87   +1.0,-0.0,+0.0
# iter:  33 15:36:54   -12.291876c  -5.54  -3.92   +1.0,-0.0,+0.0
# iter:  34 15:37:05   -12.292028c  -5.81  -4.02c  +1.0,-0.0,+0.0
# iter:  35 15:37:16   -12.292772c  -5.36  -4.05c  +1.0,+0.0,+0.0
# iter:  36 15:37:27   -12.292934c  -5.81  -4.16c  +1.0,+0.0,+0.0
# iter:  37 15:37:37   -12.292972c  -6.23  -4.18c  +1.0,+0.0,+0.0
# iter:  38 15:37:48   -12.293125c  -6.24  -4.19c  +1.0,+0.0,+0.0
# iter:  39 15:37:59   -12.293025c  -6.58  -4.29c  +1.0,+0.0,+0.0
# iter:  40 15:38:10   -12.292985c  -6.74  -4.46c  +1.0,+0.0,+0.0
# iter:  41 15:38:20   -12.292949c  -6.85  -4.50c  +1.0,+0.0,+0.0
# iter:  42 15:38:31   -12.292930c  -6.96  -4.52c  +1.0,+0.0,+0.0
# iter:  43 15:38:42   -12.292969c  -7.05  -4.60c  +1.0,+0.0,+0.0
# iter:  44 15:38:52   -12.293027c  -6.84  -4.67c  +1.0,+0.0,+0.0
# iter:  45 15:39:03   -12.293039c  -7.31  -4.85c  +1.0,+0.0,+0.0
# iter:  46 15:39:14   -12.293072c  -7.41c -4.88c  +1.0,+0.0,+0.0
scf_steps: 46
energies:  # eV
  coulomb:          -7.691981
  zero:              0.067325
  xc:              -14.878784
  external:          0.000000
  kinetic:          10.231687
  spinorbit:         0.000000
  entropy:          -0.042639
  total:           -12.314391
  extrapolated:    -12.293072

dipole moment: [-3.393000, -5.876312, -0.409778]  # |e|*Ang

total magnetic moment: [1.048878, 0.000006, 0.000000]

local magnetic moments: [
  [ 1.110716,  0.000000,  0.000000],  # Ni 0
  [ 0.000012, -0.000029,  0.000000],  # I  1
  [-0.000032, -0.000004,  0.000000]]  # I  2


Fermi level: 0.320 eV

kpt = [-0.455, -0.455, 0.000], weight = 0.008:
  Band      eig [eV]   occ [0-1]
     0       -63.416       1.000
   ...
    22        -1.488       1.000
    23        -1.291       1.000
    24        -1.261       1.000
    25        -0.820       1.000
    26        -0.597       1.000
    27        -0.579       1.000
    28        -0.304       0.998
    29        -0.293       0.998
    30         0.571       0.075
    31         0.607       0.054
    32         4.002       0.000
    33         4.151       0.000
    34         6.050       0.000
    35         6.323       0.000
    36         6.496       0.000
    37         6.845       0.000
   ...
    39         7.502       0.000

kpt = [-0.455, -0.364, 0.000], weight = 0.008:
  Band      eig [eV]   occ [0-1]
     0       -63.416       1.000
   ...
    22        -1.408       1.000
    23        -1.358       1.000
    24        -1.258       1.000
    25        -0.877       1.000
    26        -0.672       1.000
    27        -0.582       1.000
    28        -0.206       0.995
    29        -0.122       0.988
    30         0.602       0.056
    31         0.722       0.018
    32         3.704       0.000
    33         4.106       0.000
    34         5.829       0.000
    35         6.043       0.000
    36         6.409       0.000
    37         6.479       0.000
   ...
    39         6.916       0.000

kpt = [-0.455, -0.273, 0.000], weight = 0.008:
  Band      eig [eV]   occ [0-1]
     0       -63.416       1.000
   ...
    22        -1.457       1.000
    23        -1.359       1.000
    24        -1.237       1.000
    25        -0.843       1.000
    26        -0.754       1.000
    27        -0.564       1.000
    28        -0.087       0.983
    29         0.069       0.925
    30         0.632       0.042
    31         0.844       0.005
    32         3.341       0.000
    33         3.863       0.000
    34         5.374       0.000
    35         5.628       0.000
    36         6.026       0.000
    37         6.081       0.000
   ...
    39         6.497       0.000
(only showing first 3 out of 121 k-points)

Gap: 0.444 eV
Transition (v -> c):
  (s=0, k=77, n=29, [0.18, -0.45, 0.00]) -> (s=0, k=60, n=30, [0.00, 0.00, 0.00])
# Writing to gsq-16.gpw (mode='')

---

timing:  # [seconds]
  Total: 501.394  # ━━━━━━━━━━━━━━━━━━━━━━━━━━━━━━━━━━━━━━━━━━━━━━━━━━━━━━━━━
  Init:    7.523  # ━
  SCF:   493.583  # ━━━━━━━━━━━━━━━━━━━━━━━━━━━━━━━━━━━━━━━━━━━━━━━━━━━━━━━━

Max RSS: 706.934  # MiB
