#  __  _  _
# | _ |_)|_||  |
# |__||  | ||/\| - 24.1.0

User:   s194099@n-62-29-14
Date:   Wed Apr 17 15:07:14 2024
Arch:   x86_64
Pid:    32167
CWD:    /zhome/84/5/147090/10302_NM/NiI2
Python: 3.8.5
gpaw:   /zhome/84/5/147090/venv1/gpaw/gpaw (10808453a8)
_gpaw:  /zhome/84/5/147090/venv1/gpaw/
        _gpaw.cpython-38-x86_64-linux-gnu.so (10808453a8)
ase:    /zhome/84/5/147090/venv1/ase/ase (version 3.23.0b1-c36115a2db)
numpy:  /zhome/84/5/147090/venv1/lib/python3.8/site-packages/numpy (version 1.24.4)
scipy:  /zhome/84/5/147090/venv1/lib/python3.8/site-packages/scipy (version 1.10.1)
libxc:  4.3.4
units:  Angstrom and eV
cores: 12
OpenMP: False
OMP_NUM_THREADS: 1

---
input parameters:
  kpts: 
    density: 6.0
    gamma: True
  magmoms: [[1, 0, 0], [0, 0, 0], [0, 0, 0]]
  mixer: 
    backend: 'pulay'
    beta: 0.05
    method: 'sum'
    nmaxold: 5
    weight: 100
  mode: 
    name: 'pw'
    ecut: 600
    qspiral: array([0.41666667, 0.16666667, 0.        ])
  parallel: 
    kpt: None
    domain: 1
    band: 1
    order: 'kdb'
    stridebands: False
    augment_grids: False
    sl_auto: False
    sl_default: None
    sl_diagonalize: None
    sl_inverse_cholesky: None
    sl_lcao: None
    sl_lrtddft: None
    use_elpa: False
    elpasolver: '2stage'
    buffer_size: None
    gpu: False
  symmetry: 
    point_group: False
    time_reversal: False
  xc: 
    name: 'LDA'

#                        
#                        
#                        
#                        
#                        
#              I         
#                        
#        Ni              
#          I             
#                        
#                        
#                        
#                        
#                        

atoms: [  # symbols, positions [Ang] and initial magnetic moments
  [ Ni, [   0.000000,    0.000000,    5.513573], [ 1.000,  0.000,  0.000]], # 0
  [  I, [   1.984831,    1.145943,    7.027147], [ 0.000,  0.000,  0.000]], # 1
  [  I, [  -0.000000,    2.291886,    4.000000], [ 0.000,  0.000,  0.000]]] # 2

cell: [  # Ang
#     x            y            z
  [   3.969662,    0.000000,    0.000000],
  [  -1.984831,    3.437828,    0.000000],
  [   0.000000,   -0.000000,   11.027147]]

periodic: [True      , True      , False     ]
lengths:  [  3.969662,   3.969662,  11.027147]  # Ang
angles:   [ 90.000000,  90.000000, 120.000000]

symmetry:
  number of symmetries: 1
  rotations: [
    [[ 1,  0,  0], [ 0,  1,  0], [ 0,  0,  1]]]

bz sampling:
  number of bz points: 121
  number of ibz points: 121
  monkhorst-pack size: [11, 11, 1]
  monkhorst-pack shift: [0, 0, 0]
  points and weights: [
    [[ -0.45454545,  -0.45454545,   0.00000000], 0.00826446],  # 0
    [[ -0.45454545,  -0.36363636,   0.00000000], 0.00826446],  # 1
    [[ -0.45454545,  -0.27272727,   0.00000000], 0.00826446],  # 2
    [[ -0.45454545,  -0.18181818,   0.00000000], 0.00826446],  # 3
    [[ -0.45454545,  -0.09090909,   0.00000000], 0.00826446],  # 4
    [[ -0.45454545,   0.00000000,   0.00000000], 0.00826446],  # 5
    [[ -0.45454545,   0.09090909,   0.00000000], 0.00826446],  # 6
    [[ -0.45454545,   0.18181818,   0.00000000], 0.00826446],  # 7
    [[ -0.45454545,   0.27272727,   0.00000000], 0.00826446],  # 8
    [[ -0.45454545,   0.36363636,   0.00000000], 0.00826446],  # 9
    # ...
    [[  0.45454545,   0.45454545,   0.00000000], 0.00826446]]  # 120

plane wave coefficients: 5038
cutoff: 600.0 eV

spin-components: 4  # (non-collinear spins)
bands: 40
valence electrons: 30.0
spin-degeneracy: 1
dtype: complex128

memory:
    wave functions: 778_736_640  # bytes  (64_894_720 per core)

parallelization:
    kpt:    12
    domain: 1
    band:   1

density:
  components: 4
  grid points: [24 24 63]
  charge: 0.0  # |e|

potential:
  grid points: [24 24 63]

species:
  Ni:
    name: Nickel
    id: 1802175e8de9ea26d9f4394ec1a7d564
    Z: 28.0
    valence: 16
    core: 12
    charge: 0.0
    file: /zhome/86/d/1666/PAW/gpaw-setups-0.9.20000/Ni.LDA.gz
    compensation charges: {type: gauss,
                           rc: 0.36,
                           lmax: 2}
    cutoffs: {filter: 2.14,
              core: 1.98}
    valence states:
      #              energy  rcut
      - 4s(2.00)    -5.858   1.164
      - 3p(6.00)   -71.266   1.207
      - 4p(0.00)    -1.338   1.207
      - 3d(8.00)    -9.141   1.138
      -  s          21.353   1.164
      -  d          18.071   1.138
  
    # Using partial waves for Ni as LCAO basis

  I:
    name: Iodine
    id: b559721c0c096a7b4c8fc0e0f4de5cf4
    Z: 53.0
    valence: 7
    core: 46
    charge: 0.0
    file: /zhome/86/d/1666/PAW/gpaw-setups-0.9.20000/I.LDA.gz
    compensation charges: {type: gauss,
                           rc: 0.37,
                           lmax: 2}
    cutoffs: {filter: 2.06,
              core: 2.90}
    valence states:
      #              energy  rcut
      - 5s(2.00)   -17.626   1.164
      - 5p(5.00)    -7.241   1.164
      -  s           9.585   1.164
      -  p          19.970   1.164
      -  d           0.000   1.164
  
    # Using partial waves for I as LCAO basis

Reference energy: -428067.566327  # eV

eigensolver:
  name: 'Davidson'
  niter: 2
  converge_bands: 'occupied'
Density mixing:
  Method: sum
  Backend: pulay
  Linear mixing parameter: 0.05
  old densities: 5
  Damping of long wavelength oscillations: 100
occupation numbers:
  Fermi-Dirac:
    width: 0.1000  # eV
  

poisson solver:
  ecut: 4800.0  # eV

xc functional:
  name: None

convergence criteria:
- Maximum [total energy] change in last 3 cyles: 0.0005 eV / valence electron
- Maximum integral of absolute [dens]ity change: 0.0001 electrons / valence electron
- Maximum integral of absolute [eigenst]ate change: 4e-08 eV^2 / valence electron
maximum number of iterations: 333

#      iter     time        total  log10-change:
#                          energy   eigst   dens
# iter:   1 15:07:32   -12.931453                  +1.0,+0.0,+0.0
# iter:   2 15:07:43   -12.496833   +0.35  -1.31   +0.8,+0.0,+0.0
# iter:   3 15:07:54   -12.175773   -0.32  -1.45   +0.7,+0.0,+0.0
# iter:   4 15:08:05   -12.215912   -0.98  -1.68   +0.8,+0.0,-0.0
# iter:   5 15:08:16   -12.602252   -1.13  -1.68   +0.9,+0.0,-0.0
# iter:   6 15:08:27   -12.258662   -1.44  -1.67   +0.8,+0.0,-0.0
# iter:   7 15:08:37   -12.264104   -1.82  -2.19   +0.9,+0.0,+0.0
# iter:   8 15:08:48   -12.258800c  -2.02  -2.31   +0.9,+0.0,+0.0
# iter:   9 15:08:59   -12.260812c  -2.22  -2.66   +1.0,+0.0,+0.0
# iter:  10 15:09:10   -12.262883c  -2.41  -2.98   +1.0,+0.0,+0.0
# iter:  11 15:09:21   -12.269374c  -2.57  -2.94   +1.0,+0.0,-0.0
# iter:  12 15:09:31   -12.270053c  -2.74  -3.40   +1.0,+0.0,-0.0
# iter:  13 15:09:42   -12.270145c  -2.90  -3.57   +1.0,+0.0,-0.0
# iter:  14 15:09:53   -12.271136c  -3.05  -3.59   +1.1,+0.0,-0.0
# iter:  15 15:10:04   -12.272046c  -3.19  -3.52   +1.1,+0.0,-0.0
# iter:  16 15:10:14   -12.272144c  -3.35  -3.77   +1.1,+0.0,-0.0
# iter:  17 15:10:25   -12.272045c  -3.51  -3.61   +1.1,+0.0,-0.0
# iter:  18 15:10:36   -12.272094c  -3.67  -3.64   +1.1,+0.0,-0.0
# iter:  19 15:10:47   -12.272162c  -3.82  -3.79   +1.1,+0.0,-0.0
# iter:  20 15:10:57   -12.272060c  -3.98  -3.78   +1.1,+0.0,-0.0
# iter:  21 15:11:08   -12.272241c  -4.14  -3.78   +1.1,+0.0,+0.0
# iter:  22 15:11:19   -12.272411c  -4.31  -3.74   +1.1,+0.0,+0.0
# iter:  23 15:11:30   -12.272300c  -4.46  -3.67   +1.1,+0.0,+0.0
# iter:  24 15:11:40   -12.272279c  -4.64  -3.76   +1.1,+0.0,+0.0
# iter:  25 15:11:51   -12.272169c  -4.80  -3.76   +1.1,+0.0,+0.0
# iter:  26 15:12:02   -12.272358c  -4.97  -3.76   +1.1,+0.0,+0.0
# iter:  27 15:12:12   -12.272161c  -5.13  -3.75   +1.1,+0.0,+0.0
# iter:  28 15:12:23   -12.272313c  -5.31  -3.77   +1.1,+0.0,+0.0
# iter:  29 15:12:34   -12.272414c  -5.47  -3.76   +1.1,+0.0,+0.0
# iter:  30 15:12:44   -12.272544c  -5.63  -3.77   +1.1,+0.0,+0.0
# iter:  31 15:12:55   -12.274388c  -4.72  -3.78   +1.1,+0.0,-0.0
# iter:  32 15:13:06   -12.274473c  -5.61  -4.26c  +1.1,+0.0,-0.0
# iter:  33 15:13:17   -12.274462c  -6.10  -4.31c  +1.1,+0.0,-0.0
# iter:  34 15:13:27   -12.274370c  -6.32  -4.37c  +1.1,+0.0,-0.0
# iter:  35 15:13:38   -12.274405c  -6.41  -4.49c  +1.1,+0.0,-0.0
# iter:  36 15:13:49   -12.274422c  -6.69  -4.77c  +1.1,+0.0,+0.0
# iter:  37 15:14:00   -12.274454c  -6.83  -4.95c  +1.1,+0.0,+0.0
# iter:  38 15:14:10   -12.274450c  -6.99  -5.08c  +1.1,+0.0,+0.0
# iter:  39 15:14:21   -12.274447c  -7.14  -5.10c  +1.1,+0.0,+0.0
# iter:  40 15:14:32   -12.274448c  -7.29  -5.10c  +1.1,+0.0,+0.0
# iter:  41 15:14:42   -12.274448c  -7.44c -5.10c  +1.1,+0.0,+0.0
scf_steps: 41
energies:  # eV
  coulomb:          -7.859748
  zero:              0.066514
  xc:              -14.896329
  external:          0.000000
  kinetic:          10.442204
  spinorbit:         0.000000
  entropy:          -0.054181
  total:           -12.301539
  extrapolated:    -12.274448

dipole moment: [-3.365149, -6.034647, -0.417553]  # |e|*Ang

total magnetic moment: [1.108235, 0.002978, 0.000000]

local magnetic moments: [
  [ 1.111536,  0.000000,  0.000000],  # Ni 0
  [-0.043086,  0.000004, -0.000000],  # I  1
  [ 0.037315, -0.021539, -0.000000]]  # I  2


Fermi level: 0.318 eV

kpt = [-0.455, -0.455, 0.000], weight = 0.008:
  Band      eig [eV]   occ [0-1]
     0       -63.428       1.000
   ...
    22        -1.496       1.000
    23        -1.347       1.000
    24        -1.228       1.000
    25        -0.807       1.000
    26        -0.631       1.000
    27        -0.581       1.000
    28        -0.349       0.999
    29        -0.172       0.993
    30         0.518       0.119
    31         0.697       0.022
    32         3.937       0.000
    33         4.086       0.000
    34         6.040       0.000
    35         6.317       0.000
    36         6.510       0.000
    37         6.621       0.000
   ...
    39         7.123       0.000

kpt = [-0.455, -0.364, 0.000], weight = 0.008:
  Band      eig [eV]   occ [0-1]
     0       -63.428       1.000
   ...
    22        -1.405       1.000
    23        -1.381       1.000
    24        -1.234       1.000
    25        -0.891       1.000
    26        -0.639       1.000
    27        -0.585       1.000
    28        -0.247       0.997
    29        -0.066       0.979
    30         0.564       0.079
    31         0.767       0.011
    32         3.640       0.000
    33         4.156       0.000
    34         5.703       0.000
    35         5.867       0.000
    36         6.170       0.000
    37         6.449       0.000
   ...
    39         7.071       0.000

kpt = [-0.455, -0.273, 0.000], weight = 0.008:
  Band      eig [eV]   occ [0-1]
     0       -63.428       1.000
   ...
    22        -1.455       1.000
    23        -1.322       1.000
    24        -1.174       1.000
    25        -0.921       1.000
    26        -0.636       1.000
    27        -0.546       1.000
    28        -0.226       0.996
    29         0.072       0.921
    30         0.517       0.120
    31         0.871       0.004
    32         3.493       0.000
    33         4.243       0.000
    34         5.276       0.000
    35         5.736       0.000
    36         6.029       0.000
    37         6.174       0.000
   ...
    39         7.186       0.000
(only showing first 3 out of 121 k-points)

Gap: 0.276 eV
Transition (v -> c):
  (s=0, k=27, n=29, [-0.27, 0.00, 0.00]) -> (s=0, k=65, n=30, [0.00, 0.45, 0.00])
# Writing to gsq-13.gpw (mode='')

