#  __  _  _
# | _ |_)|_||  |
# |__||  | ||/\| - 24.1.0

User:   s194113@n-62-29-21
Date:   Sat Apr 27 16:44:42 2024
Arch:   x86_64
Pid:    5028
CWD:    /work3/s194113/10302/10302_NM/MnI2
Python: 3.8.5
gpaw:   /zhome/87/8/147075/venv-name/gpaw/gpaw (10808453a8)
_gpaw:  /zhome/87/8/147075/venv-name/gpaw/
        _gpaw.cpython-38-x86_64-linux-gnu.so (10808453a8)
ase:    /zhome/87/8/147075/venv-name/ase/ase (version 3.23.0b1-c36115a2db)
numpy:  /zhome/87/8/147075/venv-name/lib/python3.8/site-packages/numpy (version 1.24.4)
scipy:  /zhome/87/8/147075/venv-name/lib/python3.8/site-packages/scipy (version 1.10.1)
libxc:  4.3.4
units:  Angstrom and eV
cores: 12
OpenMP: False
OMP_NUM_THREADS: 1

---
input parameters:
  kpts: 
    density: 6.0
    gamma: True
  magmoms: [[4.4079912, 0, 0], [0.08032672, 0, 0], [0.08032672, 0, 0]]
  mixer: 
    backend: 'pulay'
    beta: 0.05
    method: 'sum'
    nmaxold: 5
    weight: 100
  mode: 
    name: 'pw'
    ecut: 600.0
    qspiral: array([0.04651163, 0.04651163, 0.        ])
  parallel: 
    kpt: None
    domain: 1
    band: 1
    order: 'kdb'
    stridebands: False
    augment_grids: False
    sl_auto: False
    sl_default: None
    sl_diagonalize: None
    sl_inverse_cholesky: None
    sl_lcao: None
    sl_lrtddft: None
    use_elpa: False
    elpasolver: '2stage'
    buffer_size: None
    gpu: False
  symmetry: 
    point_group: False
    time_reversal: False
  xc: 
    name: 'LDA'

#                        
#                        
#                        
#                        
#              I         
#                        
#                        
#        Mn              
#          I             
#                        
#                        
#                        
#                        
#                        

atoms: [  # symbols, positions [Ang] and initial magnetic moments
  [ Mn, [   0.000000,    0.000000,    7.649535], [ 4.408,  0.000,  0.000]], # 0
  [  I, [   2.082858,    1.202539,    9.299069], [ 0.080,  0.000,  0.000]], # 1
  [  I, [   0.000000,    2.405077,    6.000000], [ 0.080,  0.000,  0.000]]] # 2

cell: [  # Ang
#     x            y            z
  [   4.165716,    0.000000,    0.000000],
  [  -2.082858,    3.607616,    0.000000],
  [   0.000000,    0.000000,   15.299069]]

periodic: [True      , True      , False     ]
lengths:  [  4.165716,   4.165716,  15.299069]  # Ang
angles:   [ 90.000000,  90.000000, 120.000000]

symmetry:
  number of symmetries: 1
  rotations: [
    [[ 1,  0,  0], [ 0,  1,  0], [ 0,  0,  1]]]

bz sampling:
  number of bz points: 121
  number of ibz points: 121
  monkhorst-pack size: [11, 11, 1]
  monkhorst-pack shift: [0, 0, 0]
  points and weights: [
    [[ -0.45454545,  -0.45454545,   0.00000000], 0.00826446],  # 0
    [[ -0.45454545,  -0.36363636,   0.00000000], 0.00826446],  # 1
    [[ -0.45454545,  -0.27272727,   0.00000000], 0.00826446],  # 2
    [[ -0.45454545,  -0.18181818,   0.00000000], 0.00826446],  # 3
    [[ -0.45454545,  -0.09090909,   0.00000000], 0.00826446],  # 4
    [[ -0.45454545,   0.00000000,   0.00000000], 0.00826446],  # 5
    [[ -0.45454545,   0.09090909,   0.00000000], 0.00826446],  # 6
    [[ -0.45454545,   0.18181818,   0.00000000], 0.00826446],  # 7
    [[ -0.45454545,   0.27272727,   0.00000000], 0.00826446],  # 8
    [[ -0.45454545,   0.36363636,   0.00000000], 0.00826446],  # 9
    # ...
    [[  0.45454545,   0.45454545,   0.00000000], 0.00826446]]  # 120

plane wave coefficients: 7719
cutoff: 600.0 eV

spin-components: 4  # (non-collinear spins)
bands: 42
valence electrons: 29.0
spin-degeneracy: 1
dtype: complex128

memory:
    wave functions: 1_248_301_824  # bytes  (104_025_152 per core)

parallelization:
    kpt:    12
    domain: 1
    band:   1

density:
  components: 4
  grid points: [24 24 90]
  charge: 0.0  # |e|

potential:
  grid points: [24 24 90]

species:
  Mn:
    name: Manganese
    id: 0d715a8018be061a6e9ea6f2d364ac92
    Z: 25.0
    valence: 15
    core: 10
    charge: 0.0
    file: /zhome/86/d/1666/PAW/gpaw-setups-0.9.20000/Mn.LDA.gz
    compensation charges: {type: gauss,
                           rc: 0.38,
                           lmax: 2}
    cutoffs: {filter: 2.14,
              core: 0.86}
    valence states:
      #              energy  rcut
      - 3s(2.00)   -85.387   1.275
      - 4s(2.00)    -5.282   1.275
      - 3p(6.00)   -54.493   1.281
      - 4p(0.00)    -1.471   1.281
      - 3d(5.00)    -7.009   1.138
      -  d          20.203   1.138
  
    # Using partial waves for Mn as LCAO basis

  I:
    name: Iodine
    id: b559721c0c096a7b4c8fc0e0f4de5cf4
    Z: 53.0
    valence: 7
    core: 46
    charge: 0.0
    file: /zhome/86/d/1666/PAW/gpaw-setups-0.9.20000/I.LDA.gz
    compensation charges: {type: gauss,
                           rc: 0.37,
                           lmax: 2}
    cutoffs: {filter: 2.06,
              core: 2.90}
    valence states:
      #              energy  rcut
      - 5s(2.00)   -17.626   1.164
      - 5p(5.00)    -7.241   1.164
      -  s           9.585   1.164
      -  p          19.970   1.164
      -  d           0.000   1.164
  
    # Using partial waves for I as LCAO basis

Reference energy: -418222.442431  # eV

eigensolver:
  name: 'Davidson'
  niter: 2
  converge_bands: 'occupied'
Density mixing:
  Method: sum
  Backend: pulay
  Linear mixing parameter: 0.05
  old densities: 5
  Damping of long wavelength oscillations: 100
occupation numbers:
  Fermi-Dirac:
    width: 0.1000  # eV
  

poisson solver:
  ecut: 4800.0  # eV

xc functional:
  name: None

convergence criteria:
- Maximum [total energy] change in last 3 cyles: 0.0005 eV / valence electron
- Maximum integral of absolute [dens]ity change: 0.0001 electrons / valence electron
- Maximum integral of absolute [eigenst]ate change: 4e-08 eV^2 / valence electron
maximum number of iterations: 333

#      iter     time        total  log10-change:
#                          energy   eigst   dens
# iter:   1 16:45:07   -15.205548                  +4.6,+0.0,+0.0
# iter:   2 16:45:22   -15.183587   -0.77  -1.49   +4.8,-0.0,+0.0
# iter:   3 16:45:37   -15.107569   -1.17  -1.51   +4.8,+0.0,+0.0
# iter:   4 16:45:53   -15.118837   -1.51  -1.60   +4.8,+0.0,+0.0
# iter:   5 16:46:08   -15.156035   -1.76  -1.79   +5.0,+0.0,-0.0
# iter:   6 16:46:24   -15.125814   -1.99  -2.29   +5.0,+0.0,+0.0
# iter:   7 16:46:39   -15.123227   -2.29  -2.42   +5.0,+0.0,-0.0
# iter:   8 16:46:54   -15.127439c  -2.60  -2.78   +4.9,+0.0,-0.0
# iter:   9 16:47:09   -15.131434c  -2.83  -2.65   +5.0,+0.0,-0.0
# iter:  10 16:47:25   -15.122768c  -2.81  -2.64   +5.0,+0.0,-0.0
# iter:  11 16:47:40   -15.123092c  -3.31  -3.46   +5.0,+0.0,-0.0
# iter:  12 16:47:55   -15.123124c  -3.54  -3.50   +5.0,+0.0,-0.0
# iter:  13 16:48:10   -15.123130c  -3.72  -3.56   +5.0,+0.0,-0.0
# iter:  14 16:48:25   -15.123163c  -3.88  -3.60   +5.0,+0.0,-0.0
# iter:  15 16:48:41   -15.123169c  -4.05  -3.65   +5.0,+0.0,-0.0
# iter:  16 16:48:56   -15.123184c  -4.17  -3.74   +5.0,+0.0,-0.0
# iter:  17 16:49:11   -15.123174c  -4.40  -4.03c  +5.0,+0.0,-0.0
# iter:  18 16:49:26   -15.123173c  -4.57  -4.13c  +5.0,+0.0,-0.0
# iter:  19 16:49:41   -15.123176c  -4.73  -4.12c  +5.0,+0.0,-0.0
# iter:  20 16:49:57   -15.123177c  -4.91  -4.34c  +5.0,+0.0,-0.0
# iter:  21 16:50:12   -15.123177c  -5.07  -4.37c  +5.0,+0.0,-0.0
# iter:  22 16:50:27   -15.123181c  -5.23  -4.48c  +5.0,+0.0,-0.0
# iter:  23 16:50:42   -15.123181c  -5.39  -4.54c  +5.0,+0.0,-0.0
# iter:  24 16:50:57   -15.123177c  -5.55  -4.60c  +5.0,+0.0,-0.0
# iter:  25 16:51:12   -15.123180c  -5.71  -4.79c  +5.0,+0.0,-0.0
# iter:  26 16:51:28   -15.123180c  -5.87  -5.38c  +5.0,+0.0,-0.0
# iter:  27 16:51:43   -15.123180c  -6.02  -5.40c  +5.0,+0.0,-0.0
# iter:  28 16:51:58   -15.123180c  -6.17  -5.45c  +5.0,+0.0,-0.0
# iter:  29 16:52:13   -15.123180c  -6.31  -5.42c  +5.0,+0.0,+0.0
# iter:  30 16:52:29   -15.123180c  -6.46  -5.49c  +5.0,+0.0,+0.0
# iter:  31 16:52:44   -15.123180c  -6.61  -5.45c  +5.0,+0.0,+0.0
# iter:  32 16:52:59   -15.123180c  -6.75  -5.47c  +5.0,+0.0,+0.0
# iter:  33 16:53:14   -15.123180c  -6.90  -5.57c  +5.0,+0.0,+0.0
# iter:  34 16:53:30   -15.123180c  -7.05  -5.56c  +5.0,+0.0,+0.0
# iter:  35 16:53:45   -15.123180c  -7.21  -5.57c  +5.0,+0.0,+0.0
# iter:  36 16:54:00   -15.123180c  -7.36  -5.64c  +5.0,+0.0,+0.0
# iter:  37 16:54:15   -15.123180c  -7.51c -5.77c  +5.0,+0.0,+0.0
scf_steps: 37
energies:  # eV
  coulomb:         -13.014401
  zero:              0.091804
  xc:              -17.245448
  external:          0.000000
  kinetic:          15.045962
  spinorbit:         0.000000
  entropy:          -0.002193
  total:           -15.124276
  extrapolated:    -15.123180

dipole moment: [-5.683865, -9.844744, -14.341344]  # |e|*Ang

total magnetic moment: [4.966891, 0.007223, 0.000000]

local magnetic moments: [
  [ 4.359074, -0.000228,  0.000000],  # Mn 0
  [ 0.078839, -0.023723,  0.000000],  # I  1
  [ 0.078839, -0.023724, -0.000000]]  # I  2


Fermi level: -1.256 eV

kpt = [-0.455, -0.455, 0.000], weight = 0.008:
  Band      eig [eV]   occ [0-1]
     0       -82.219       1.000
   ...
    21        -3.919       1.000
    22        -3.869       1.000
    23        -3.847       1.000
    24        -3.745       1.000
    25        -3.679       1.000
    26        -3.609       1.000
    27        -2.059       1.000
    28        -2.025       1.000
    29        -0.661       0.003
    30        -0.161       0.000
    31        -0.157       0.000
    32         0.517       0.000
    33         0.665       0.000
    34         1.163       0.000
    35         2.077       0.000
    36         2.949       0.000
   ...
    41         4.546       0.000

kpt = [-0.455, -0.364, 0.000], weight = 0.008:
  Band      eig [eV]   occ [0-1]
     0       -82.219       1.000
   ...
    21        -4.030       1.000
    22        -3.965       1.000
    23        -3.847       1.000
    24        -3.758       1.000
    25        -3.594       1.000
    26        -3.546       1.000
    27        -2.266       1.000
    28        -2.086       1.000
    29        -0.471       0.000
    30        -0.176       0.000
    31        -0.159       0.000
    32         0.403       0.000
    33         0.607       0.000
    34         1.519       0.000
    35         2.413       0.000
    36         3.501       0.000
   ...
    41         4.738       0.000

kpt = [-0.455, -0.273, 0.000], weight = 0.008:
  Band      eig [eV]   occ [0-1]
     0       -82.219       1.000
   ...
    21        -4.145       1.000
    22        -3.980       1.000
    23        -3.824       1.000
    24        -3.799       1.000
    25        -3.535       1.000
    26        -3.504       1.000
    27        -2.392       1.000
    28        -2.104       1.000
    29        -0.353       0.000
    30        -0.208       0.000
    31        -0.161       0.000
    32         0.347       0.000
    33         0.574       0.000
    34         1.757       0.000
    35         2.609       0.000
    36         3.666       0.000
   ...
    41         5.129       0.000
(only showing first 3 out of 121 k-points)

Gap: 0.915 eV
Transition (v -> c):
  (s=0, k=60, n=28, [0.00, 0.00, 0.00]) -> (s=0, k=5, n=29, [-0.45, 0.00, 0.00])
# Writing to Band/gsq-94.gpw (mode='')

---

timing:  # [seconds]
  Total: 574.130  # ━━━━━━━━━━━━━━━━━━━━━━━━━━━━━━━━━━━━━━━━━━━━━━━━━━━━━━━━━
  Init:   10.120  # ━
  SCF:   563.613  # ━━━━━━━━━━━━━━━━━━━━━━━━━━━━━━━━━━━━━━━━━━━━━━━━━━━━━━━━

Max RSS: 2351.828  # MiB
