#  __  _  _
# | _ |_)|_||  |
# |__||  | ||/\| - 24.1.0

User:   s194113@n-62-29-21
Date:   Sat Apr 27 10:43:06 2024
Arch:   x86_64
Pid:    5028
CWD:    /work3/s194113/10302/10302_NM/MnI2
Python: 3.8.5
gpaw:   /zhome/87/8/147075/venv-name/gpaw/gpaw (10808453a8)
_gpaw:  /zhome/87/8/147075/venv-name/gpaw/
        _gpaw.cpython-38-x86_64-linux-gnu.so (10808453a8)
ase:    /zhome/87/8/147075/venv-name/ase/ase (version 3.23.0b1-c36115a2db)
numpy:  /zhome/87/8/147075/venv-name/lib/python3.8/site-packages/numpy (version 1.24.4)
scipy:  /zhome/87/8/147075/venv-name/lib/python3.8/site-packages/scipy (version 1.10.1)
libxc:  4.3.4
units:  Angstrom and eV
cores: 12
OpenMP: False
OMP_NUM_THREADS: 1

---
input parameters:
  kpts: 
    density: 6.0
    gamma: True
  magmoms: [[4.4079912, 0, 0], [0.08032672, 0, 0], [0.08032672, 0, 0]]
  mixer: 
    backend: 'pulay'
    beta: 0.05
    method: 'sum'
    nmaxold: 5
    weight: 100
  mode: 
    name: 'pw'
    ecut: 600.0
    qspiral: array([0.31782946, 0.31782946, 0.        ])
  parallel: 
    kpt: None
    domain: 1
    band: 1
    order: 'kdb'
    stridebands: False
    augment_grids: False
    sl_auto: False
    sl_default: None
    sl_diagonalize: None
    sl_inverse_cholesky: None
    sl_lcao: None
    sl_lrtddft: None
    use_elpa: False
    elpasolver: '2stage'
    buffer_size: None
    gpu: False
  symmetry: 
    point_group: False
    time_reversal: False
  xc: 
    name: 'LDA'

#                        
#                        
#                        
#                        
#              I         
#                        
#                        
#        Mn              
#          I             
#                        
#                        
#                        
#                        
#                        

atoms: [  # symbols, positions [Ang] and initial magnetic moments
  [ Mn, [   0.000000,    0.000000,    7.649535], [ 4.408,  0.000,  0.000]], # 0
  [  I, [   2.082858,    1.202539,    9.299069], [ 0.080,  0.000,  0.000]], # 1
  [  I, [   0.000000,    2.405077,    6.000000], [ 0.080,  0.000,  0.000]]] # 2

cell: [  # Ang
#     x            y            z
  [   4.165716,    0.000000,    0.000000],
  [  -2.082858,    3.607616,    0.000000],
  [   0.000000,    0.000000,   15.299069]]

periodic: [True      , True      , False     ]
lengths:  [  4.165716,   4.165716,  15.299069]  # Ang
angles:   [ 90.000000,  90.000000, 120.000000]

symmetry:
  number of symmetries: 1
  rotations: [
    [[ 1,  0,  0], [ 0,  1,  0], [ 0,  0,  1]]]

bz sampling:
  number of bz points: 121
  number of ibz points: 121
  monkhorst-pack size: [11, 11, 1]
  monkhorst-pack shift: [0, 0, 0]
  points and weights: [
    [[ -0.45454545,  -0.45454545,   0.00000000], 0.00826446],  # 0
    [[ -0.45454545,  -0.36363636,   0.00000000], 0.00826446],  # 1
    [[ -0.45454545,  -0.27272727,   0.00000000], 0.00826446],  # 2
    [[ -0.45454545,  -0.18181818,   0.00000000], 0.00826446],  # 3
    [[ -0.45454545,  -0.09090909,   0.00000000], 0.00826446],  # 4
    [[ -0.45454545,   0.00000000,   0.00000000], 0.00826446],  # 5
    [[ -0.45454545,   0.09090909,   0.00000000], 0.00826446],  # 6
    [[ -0.45454545,   0.18181818,   0.00000000], 0.00826446],  # 7
    [[ -0.45454545,   0.27272727,   0.00000000], 0.00826446],  # 8
    [[ -0.45454545,   0.36363636,   0.00000000], 0.00826446],  # 9
    # ...
    [[  0.45454545,   0.45454545,   0.00000000], 0.00826446]]  # 120

plane wave coefficients: 7719
cutoff: 600.0 eV

spin-components: 4  # (non-collinear spins)
bands: 42
valence electrons: 29.0
spin-degeneracy: 1
dtype: complex128

memory:
    wave functions: 1_248_301_824  # bytes  (104_025_152 per core)

parallelization:
    kpt:    12
    domain: 1
    band:   1

density:
  components: 4
  grid points: [24 24 90]
  charge: 0.0  # |e|

potential:
  grid points: [24 24 90]

species:
  Mn:
    name: Manganese
    id: 0d715a8018be061a6e9ea6f2d364ac92
    Z: 25.0
    valence: 15
    core: 10
    charge: 0.0
    file: /zhome/86/d/1666/PAW/gpaw-setups-0.9.20000/Mn.LDA.gz
    compensation charges: {type: gauss,
                           rc: 0.38,
                           lmax: 2}
    cutoffs: {filter: 2.14,
              core: 0.86}
    valence states:
      #              energy  rcut
      - 3s(2.00)   -85.387   1.275
      - 4s(2.00)    -5.282   1.275
      - 3p(6.00)   -54.493   1.281
      - 4p(0.00)    -1.471   1.281
      - 3d(5.00)    -7.009   1.138
      -  d          20.203   1.138
  
    # Using partial waves for Mn as LCAO basis

  I:
    name: Iodine
    id: b559721c0c096a7b4c8fc0e0f4de5cf4
    Z: 53.0
    valence: 7
    core: 46
    charge: 0.0
    file: /zhome/86/d/1666/PAW/gpaw-setups-0.9.20000/I.LDA.gz
    compensation charges: {type: gauss,
                           rc: 0.37,
                           lmax: 2}
    cutoffs: {filter: 2.06,
              core: 2.90}
    valence states:
      #              energy  rcut
      - 5s(2.00)   -17.626   1.164
      - 5p(5.00)    -7.241   1.164
      -  s           9.585   1.164
      -  p          19.970   1.164
      -  d           0.000   1.164
  
    # Using partial waves for I as LCAO basis

Reference energy: -418222.442431  # eV

eigensolver:
  name: 'Davidson'
  niter: 2
  converge_bands: 'occupied'
Density mixing:
  Method: sum
  Backend: pulay
  Linear mixing parameter: 0.05
  old densities: 5
  Damping of long wavelength oscillations: 100
occupation numbers:
  Fermi-Dirac:
    width: 0.1000  # eV
  

poisson solver:
  ecut: 4800.0  # eV

xc functional:
  name: None

convergence criteria:
- Maximum [total energy] change in last 3 cyles: 0.0005 eV / valence electron
- Maximum integral of absolute [dens]ity change: 0.0001 electrons / valence electron
- Maximum integral of absolute [eigenst]ate change: 4e-08 eV^2 / valence electron
maximum number of iterations: 333

#      iter     time        total  log10-change:
#                          energy   eigst   dens
# iter:   1 10:43:31   -14.672523                  +4.6,+0.0,+0.0
# iter:   2 10:43:46   -15.142170   -0.09  -1.49   +4.1,-0.0,-0.0
# iter:   3 10:44:01   -15.138181   -0.72  -1.52   +4.0,-0.0,-0.0
# iter:   4 10:44:17   -15.156731   -1.03  -1.56   +4.1,-0.0,+0.0
# iter:   5 10:44:32   -15.252874   -1.32  -1.75   +4.3,-0.0,-0.0
# iter:   6 10:44:47   -15.157435   -1.59  -2.15   +4.4,+0.0,+0.0
# iter:   7 10:45:02   -15.152458   -1.66  -2.30   +4.4,+0.0,+0.0
# iter:   8 10:45:17   -15.141313   -2.12  -2.20   +4.3,+0.0,-0.0
# iter:   9 10:45:33   -15.142038c  -2.40  -2.95   +4.3,+0.0,-0.0
# iter:  10 10:45:48   -15.142449c  -2.60  -3.05   +4.3,+0.0,-0.0
# iter:  11 10:46:03   -15.141668c  -2.78  -2.98   +4.3,+0.0,-0.0
# iter:  12 10:46:18   -15.141754c  -2.99  -3.35   +4.3,+0.0,-0.0
# iter:  13 10:46:33   -15.141799c  -3.18  -3.48   +4.3,+0.0,-0.0
# iter:  14 10:46:48   -15.141908c  -3.35  -3.53   +4.3,+0.0,+0.0
# iter:  15 10:47:04   -15.141893c  -3.54  -3.53   +4.3,+0.0,-0.0
# iter:  16 10:47:19   -15.141883c  -3.72  -3.56   +4.3,+0.0,-0.0
# iter:  17 10:47:34   -15.141919c  -3.87  -3.59   +4.3,+0.0,-0.0
# iter:  18 10:47:49   -15.141865c  -4.03  -3.74   +4.3,+0.0,-0.0
# iter:  19 10:48:04   -15.141862c  -4.20  -3.98   +4.3,+0.0,-0.0
# iter:  20 10:48:19   -15.141864c  -4.36  -4.08c  +4.3,+0.0,-0.0
# iter:  21 10:48:34   -15.141871c  -4.48  -4.23c  +4.3,+0.0,-0.0
# iter:  22 10:48:49   -15.141866c  -4.67  -3.99   +4.3,+0.0,-0.0
# iter:  23 10:49:04   -15.141868c  -4.76  -4.08c  +4.3,+0.0,-0.0
# iter:  24 10:49:20   -15.141865c  -4.96  -4.61c  +4.3,+0.0,-0.0
# iter:  25 10:49:35   -15.141865c  -5.10  -5.30c  +4.3,+0.0,-0.0
# iter:  26 10:49:50   -15.141866c  -5.23  -5.28c  +4.3,+0.0,-0.0
# iter:  27 10:50:05   -15.141866c  -5.37  -5.27c  +4.3,+0.0,-0.0
# iter:  28 10:50:20   -15.141866c  -5.51  -5.24c  +4.3,+0.0,-0.0
# iter:  29 10:50:35   -15.141866c  -5.65  -5.14c  +4.3,+0.0,-0.0
# iter:  30 10:50:51   -15.141866c  -5.79  -5.16c  +4.3,+0.0,-0.0
# iter:  31 10:51:06   -15.141866c  -5.92  -5.12c  +4.3,+0.0,-0.0
# iter:  32 10:51:21   -15.141866c  -6.06  -5.28c  +4.3,+0.0,-0.0
# iter:  33 10:51:36   -15.141866c  -6.19  -5.25c  +4.3,+0.0,-0.0
# iter:  34 10:51:52   -15.141866c  -6.31  -5.28c  +4.3,+0.0,-0.0
# iter:  35 10:52:07   -15.141866c  -6.44  -5.22c  +4.3,+0.0,-0.0
# iter:  36 10:52:22   -15.141866c  -6.57  -5.26c  +4.3,+0.0,-0.0
# iter:  37 10:52:37   -15.141866c  -6.70  -5.27c  +4.3,+0.0,-0.0
# iter:  38 10:52:52   -15.141866c  -6.82  -5.50c  +4.3,+0.0,-0.0
# iter:  39 10:53:07   -15.141866c  -6.94  -5.63c  +4.3,+0.0,-0.0
# iter:  40 10:53:22   -15.141866c  -7.06  -5.73c  +4.3,+0.0,-0.0
# iter:  41 10:53:37   -15.141866c  -7.19  -5.81c  +4.3,+0.0,-0.0
# iter:  42 10:53:53   -15.141866c  -7.32  -5.93c  +4.3,+0.0,-0.0
# iter:  43 10:54:08   -15.141866c  -7.44c -5.94c  +4.3,+0.0,-0.0
scf_steps: 43
energies:  # eV
  coulomb:         -12.456075
  zero:              0.093411
  xc:              -17.137740
  external:          0.000000
  kinetic:          14.358998
  spinorbit:         0.000000
  entropy:          -0.000921
  total:           -15.142327
  extrapolated:    -15.141866

dipole moment: [-4.747069, -8.222163, -9.346102]  # |e|*Ang

total magnetic moment: [4.322404, 0.001129, -0.000000]

local magnetic moments: [
  [ 4.322364, -0.000024, -0.000000],  # Mn 0
  [-0.001644, -0.003622, -0.000000],  # I  1
  [-0.001645, -0.003622, -0.000000]]  # I  2


Fermi level: -1.215 eV

kpt = [-0.455, -0.455, 0.000], weight = 0.008:
  Band      eig [eV]   occ [0-1]
     0       -82.167       1.000
   ...
    21        -4.269       1.000
    22        -4.046       1.000
    23        -3.740       1.000
    24        -3.672       1.000
    25        -3.572       1.000
    26        -3.549       1.000
    27        -2.230       1.000
    28        -2.200       1.000
    29        -0.316       0.000
    30        -0.192       0.000
    31        -0.147       0.000
    32         0.448       0.000
    33         0.453       0.000
    34         1.783       0.000
    35         2.554       0.000
    36         3.897       0.000
   ...
    41         5.745       0.000

kpt = [-0.455, -0.364, 0.000], weight = 0.008:
  Band      eig [eV]   occ [0-1]
     0       -82.167       1.000
   ...
    21        -4.041       1.000
    22        -3.996       1.000
    23        -3.762       1.000
    24        -3.657       1.000
    25        -3.533       1.000
    26        -3.404       1.000
    27        -2.271       1.000
    28        -2.073       1.000
    29        -0.327       0.000
    30        -0.261       0.000
    31        -0.159       0.000
    32         0.431       0.000
    33         0.519       0.000
    34         1.642       0.000
    35         2.375       0.000
    36         3.519       0.000
   ...
    41         4.711       0.000

kpt = [-0.455, -0.273, 0.000], weight = 0.008:
  Band      eig [eV]   occ [0-1]
     0       -82.167       1.000
   ...
    21        -3.935       1.000
    22        -3.743       1.000
    23        -3.709       1.000
    24        -3.566       1.000
    25        -3.445       1.000
    26        -3.281       1.000
    27        -2.240       1.000
    28        -1.945       0.999
    29        -0.459       0.001
    30        -0.271       0.000
    31        -0.154       0.000
    32         0.436       0.000
    33         0.558       0.000
    34         1.476       0.000
    35         2.152       0.000
    36         3.074       0.000
   ...
    41         4.614       0.000
(only showing first 3 out of 121 k-points)

Gap: 1.425 eV
Transition (v -> c):
  (s=0, k=7, n=28, [-0.45, 0.18, 0.00]) -> (s=0, k=102, n=29, [0.36, -0.18, 0.00])
# Writing to Band/gsq-59.gpw (mode='')

---

timing:  # [seconds]
  Total: 662.429  # ━━━━━━━━━━━━━━━━━━━━━━━━━━━━━━━━━━━━━━━━━━━━━━━━━━━━━━━━━
  Init:   10.201  # ━
  SCF:   651.839  # ━━━━━━━━━━━━━━━━━━━━━━━━━━━━━━━━━━━━━━━━━━━━━━━━━━━━━━━━

Max RSS: 1706.062  # MiB
