#  __  _  _
# | _ |_)|_||  |
# |__||  | ||/\| - 24.1.0

User:   s194113@n-62-29-21
Date:   Sat Apr 27 04:43:05 2024
Arch:   x86_64
Pid:    5028
CWD:    /work3/s194113/10302/10302_NM/MnI2
Python: 3.8.5
gpaw:   /zhome/87/8/147075/venv-name/gpaw/gpaw (10808453a8)
_gpaw:  /zhome/87/8/147075/venv-name/gpaw/
        _gpaw.cpython-38-x86_64-linux-gnu.so (10808453a8)
ase:    /zhome/87/8/147075/venv-name/ase/ase (version 3.23.0b1-c36115a2db)
numpy:  /zhome/87/8/147075/venv-name/lib/python3.8/site-packages/numpy (version 1.24.4)
scipy:  /zhome/87/8/147075/venv-name/lib/python3.8/site-packages/scipy (version 1.10.1)
libxc:  4.3.4
units:  Angstrom and eV
cores: 12
OpenMP: False
OMP_NUM_THREADS: 1

---
input parameters:
  kpts: 
    density: 6.0
    gamma: True
  magmoms: [[4.4079912, 0, 0], [0.08032672, 0, 0], [0.08032672, 0, 0]]
  mixer: 
    backend: 'pulay'
    beta: 0.05
    method: 'sum'
    nmaxold: 5
    weight: 100
  mode: 
    name: 'pw'
    ecut: 600.0
    qspiral: array([0.36111111, 0.        , 0.        ])
  parallel: 
    kpt: None
    domain: 1
    band: 1
    order: 'kdb'
    stridebands: False
    augment_grids: False
    sl_auto: False
    sl_default: None
    sl_diagonalize: None
    sl_inverse_cholesky: None
    sl_lcao: None
    sl_lrtddft: None
    use_elpa: False
    elpasolver: '2stage'
    buffer_size: None
    gpu: False
  symmetry: 
    point_group: False
    time_reversal: False
  xc: 
    name: 'LDA'

#                        
#                        
#                        
#                        
#              I         
#                        
#                        
#        Mn              
#          I             
#                        
#                        
#                        
#                        
#                        

atoms: [  # symbols, positions [Ang] and initial magnetic moments
  [ Mn, [   0.000000,    0.000000,    7.649535], [ 4.408,  0.000,  0.000]], # 0
  [  I, [   2.082858,    1.202539,    9.299069], [ 0.080,  0.000,  0.000]], # 1
  [  I, [   0.000000,    2.405077,    6.000000], [ 0.080,  0.000,  0.000]]] # 2

cell: [  # Ang
#     x            y            z
  [   4.165716,    0.000000,    0.000000],
  [  -2.082858,    3.607616,    0.000000],
  [   0.000000,    0.000000,   15.299069]]

periodic: [True      , True      , False     ]
lengths:  [  4.165716,   4.165716,  15.299069]  # Ang
angles:   [ 90.000000,  90.000000, 120.000000]

symmetry:
  number of symmetries: 1
  rotations: [
    [[ 1,  0,  0], [ 0,  1,  0], [ 0,  0,  1]]]

bz sampling:
  number of bz points: 121
  number of ibz points: 121
  monkhorst-pack size: [11, 11, 1]
  monkhorst-pack shift: [0, 0, 0]
  points and weights: [
    [[ -0.45454545,  -0.45454545,   0.00000000], 0.00826446],  # 0
    [[ -0.45454545,  -0.36363636,   0.00000000], 0.00826446],  # 1
    [[ -0.45454545,  -0.27272727,   0.00000000], 0.00826446],  # 2
    [[ -0.45454545,  -0.18181818,   0.00000000], 0.00826446],  # 3
    [[ -0.45454545,  -0.09090909,   0.00000000], 0.00826446],  # 4
    [[ -0.45454545,   0.00000000,   0.00000000], 0.00826446],  # 5
    [[ -0.45454545,   0.09090909,   0.00000000], 0.00826446],  # 6
    [[ -0.45454545,   0.18181818,   0.00000000], 0.00826446],  # 7
    [[ -0.45454545,   0.27272727,   0.00000000], 0.00826446],  # 8
    [[ -0.45454545,   0.36363636,   0.00000000], 0.00826446],  # 9
    # ...
    [[  0.45454545,   0.45454545,   0.00000000], 0.00826446]]  # 120

plane wave coefficients: 7719
cutoff: 600.0 eV

spin-components: 4  # (non-collinear spins)
bands: 42
valence electrons: 29.0
spin-degeneracy: 1
dtype: complex128

memory:
    wave functions: 1_248_301_824  # bytes  (104_025_152 per core)

parallelization:
    kpt:    12
    domain: 1
    band:   1

density:
  components: 4
  grid points: [24 24 90]
  charge: 0.0  # |e|

potential:
  grid points: [24 24 90]

species:
  Mn:
    name: Manganese
    id: 0d715a8018be061a6e9ea6f2d364ac92
    Z: 25.0
    valence: 15
    core: 10
    charge: 0.0
    file: /zhome/86/d/1666/PAW/gpaw-setups-0.9.20000/Mn.LDA.gz
    compensation charges: {type: gauss,
                           rc: 0.38,
                           lmax: 2}
    cutoffs: {filter: 2.14,
              core: 0.86}
    valence states:
      #              energy  rcut
      - 3s(2.00)   -85.387   1.275
      - 4s(2.00)    -5.282   1.275
      - 3p(6.00)   -54.493   1.281
      - 4p(0.00)    -1.471   1.281
      - 3d(5.00)    -7.009   1.138
      -  d          20.203   1.138
  
    # Using partial waves for Mn as LCAO basis

  I:
    name: Iodine
    id: b559721c0c096a7b4c8fc0e0f4de5cf4
    Z: 53.0
    valence: 7
    core: 46
    charge: 0.0
    file: /zhome/86/d/1666/PAW/gpaw-setups-0.9.20000/I.LDA.gz
    compensation charges: {type: gauss,
                           rc: 0.37,
                           lmax: 2}
    cutoffs: {filter: 2.06,
              core: 2.90}
    valence states:
      #              energy  rcut
      - 5s(2.00)   -17.626   1.164
      - 5p(5.00)    -7.241   1.164
      -  s           9.585   1.164
      -  p          19.970   1.164
      -  d           0.000   1.164
  
    # Using partial waves for I as LCAO basis

Reference energy: -418222.442431  # eV

eigensolver:
  name: 'Davidson'
  niter: 2
  converge_bands: 'occupied'
Density mixing:
  Method: sum
  Backend: pulay
  Linear mixing parameter: 0.05
  old densities: 5
  Damping of long wavelength oscillations: 100
occupation numbers:
  Fermi-Dirac:
    width: 0.1000  # eV
  

poisson solver:
  ecut: 4800.0  # eV

xc functional:
  name: None

convergence criteria:
- Maximum [total energy] change in last 3 cyles: 0.0005 eV / valence electron
- Maximum integral of absolute [dens]ity change: 0.0001 electrons / valence electron
- Maximum integral of absolute [eigenst]ate change: 4e-08 eV^2 / valence electron
maximum number of iterations: 333

#      iter     time        total  log10-change:
#                          energy   eigst   dens
# iter:   1 04:43:30   -15.024081                  +4.6,+0.0,+0.0
# iter:   2 04:43:46   -15.180862   -0.38  -1.49   +4.3,-0.0,+0.0
# iter:   3 04:44:02   -15.139326   -0.95  -1.52   +4.3,-0.0,+0.0
# iter:   4 04:44:17   -15.147132   -1.20  -1.57   +4.4,+0.0,+0.0
# iter:   5 04:44:33   -15.216310   -1.51  -1.77   +4.6,+0.0,+0.0
# iter:   6 04:44:48   -15.176820   -1.87  -2.21   +4.6,+0.0,+0.0
# iter:   7 04:45:04   -15.139167   -1.91  -2.26   +4.6,+0.0,+0.0
# iter:   8 04:45:19   -15.137553   -2.29  -2.35   +4.6,+0.0,+0.0
# iter:   9 04:45:34   -15.139703c  -2.58  -2.91   +4.6,+0.0,+0.0
# iter:  10 04:45:50   -15.139098c  -2.87  -2.80   +4.6,+0.0,-0.0
# iter:  11 04:46:05   -15.138921c  -3.06  -2.80   +4.6,+0.0,-0.0
# iter:  12 04:46:21   -15.138371c  -2.99  -2.93   +4.6,+0.0,-0.0
# iter:  13 04:46:36   -15.137726c  -3.41  -3.05   +4.6,+0.0,+0.0
# iter:  14 04:46:51   -15.137754c  -3.68  -3.52   +4.6,+0.0,+0.0
# iter:  15 04:47:07   -15.137753c  -3.86  -3.63   +4.6,+0.0,+0.0
# iter:  16 04:47:22   -15.138075c  -3.90  -3.69   +4.6,+0.0,+0.0
# iter:  17 04:47:38   -15.137819c  -4.12  -3.44   +4.6,+0.0,+0.0
# iter:  18 04:47:53   -15.137797c  -4.25  -3.87   +4.6,+0.0,+0.0
# iter:  19 04:48:08   -15.137788c  -4.48  -3.91   +4.6,+0.0,+0.0
# iter:  20 04:48:23   -15.137786c  -4.68  -4.36c  +4.6,+0.0,+0.0
# iter:  21 04:48:39   -15.137786c  -4.83  -4.60c  +4.6,+0.0,+0.0
# iter:  22 04:48:54   -15.137788c  -4.98  -4.62c  +4.6,+0.0,+0.0
# iter:  23 04:49:09   -15.137787c  -5.14  -4.89c  +4.6,+0.0,+0.0
# iter:  24 04:49:25   -15.137787c  -5.28  -5.28c  +4.6,+0.0,+0.0
# iter:  25 04:49:40   -15.137788c  -5.43  -5.30c  +4.6,+0.0,+0.0
# iter:  26 04:49:56   -15.137788c  -5.58  -5.37c  +4.6,+0.0,+0.0
# iter:  27 04:50:11   -15.137787c  -5.73  -5.41c  +4.6,+0.0,+0.0
# iter:  28 04:50:26   -15.137787c  -5.87  -5.34c  +4.6,+0.0,+0.0
# iter:  29 04:50:41   -15.137787c  -6.01  -5.33c  +4.6,+0.0,+0.0
# iter:  30 04:50:57   -15.137787c  -6.15  -5.37c  +4.6,+0.0,+0.0
# iter:  31 04:51:12   -15.137788c  -6.28  -5.18c  +4.6,+0.0,+0.0
# iter:  32 04:51:27   -15.137788c  -6.42  -6.08c  +4.6,+0.0,+0.0
# iter:  33 04:51:42   -15.137788c  -6.56  -6.00c  +4.6,+0.0,+0.0
# iter:  34 04:51:58   -15.137788c  -6.69  -5.87c  +4.6,+0.0,+0.0
# iter:  35 04:52:13   -15.137788c  -6.81  -5.96c  +4.6,+0.0,+0.0
# iter:  36 04:52:28   -15.137788c  -6.95  -5.57c  +4.6,+0.0,+0.0
# iter:  37 04:52:44   -15.137788c  -7.09  -5.59c  +4.6,+0.0,+0.0
# iter:  38 04:52:59   -15.137788c  -7.21  -5.88c  +4.6,+0.0,+0.0
# iter:  39 04:53:14   -15.137788c  -7.34  -5.70c  +4.6,+0.0,+0.0
# iter:  40 04:53:29   -15.137788c  -7.48c -5.98c  +4.6,+0.0,+0.0
scf_steps: 40
energies:  # eV
  coulomb:         -12.570819
  zero:              0.093131
  xc:              -17.161337
  external:          0.000000
  kinetic:          14.501866
  spinorbit:         0.000000
  entropy:          -0.001255
  total:           -15.138415
  extrapolated:    -15.137788

dipole moment: [-4.948017, -9.066584, -11.327415]  # |e|*Ang

total magnetic moment: [4.595711, 0.008599, 0.000000]

local magnetic moments: [
  [ 4.331739, -0.000278,  0.000000],  # Mn 0
  [-0.007126, -0.037523,  0.000000],  # I  1
  [ 0.033323, -0.018664,  0.000000]]  # I  2


Fermi level: -1.228 eV

kpt = [-0.455, -0.455, 0.000], weight = 0.008:
  Band      eig [eV]   occ [0-1]
     0       -82.179       1.000
   ...
    21        -4.058       1.000
    22        -3.914       1.000
    23        -3.844       1.000
    24        -3.735       1.000
    25        -3.490       1.000
    26        -3.414       1.000
    27        -2.227       1.000
    28        -2.040       1.000
    29        -0.470       0.001
    30        -0.199       0.000
    31        -0.145       0.000
    32         0.412       0.000
    33         0.597       0.000
    34         1.527       0.000
    35         2.415       0.000
    36         3.283       0.000
   ...
    41         4.995       0.000

kpt = [-0.455, -0.364, 0.000], weight = 0.008:
  Band      eig [eV]   occ [0-1]
     0       -82.179       1.000
   ...
    21        -3.951       1.000
    22        -3.877       1.000
    23        -3.739       1.000
    24        -3.652       1.000
    25        -3.442       1.000
    26        -3.367       1.000
    27        -2.272       1.000
    28        -2.003       1.000
    29        -0.460       0.000
    30        -0.201       0.000
    31        -0.146       0.000
    32         0.447       0.000
    33         0.524       0.000
    34         1.528       0.000
    35         2.351       0.000
    36         3.072       0.000
   ...
    41         5.020       0.000

kpt = [-0.455, -0.273, 0.000], weight = 0.008:
  Band      eig [eV]   occ [0-1]
     0       -82.179       1.000
   ...
    21        -3.966       1.000
    22        -3.815       1.000
    23        -3.725       1.000
    24        -3.582       1.000
    25        -3.433       1.000
    26        -3.272       1.000
    27        -2.355       1.000
    28        -2.015       1.000
    29        -0.362       0.000
    30        -0.224       0.000
    31        -0.174       0.000
    32         0.345       0.000
    33         0.520       0.000
    34         1.815       0.000
    35         2.497       0.000
    36         3.372       0.000
   ...
    41         5.084       0.000
(only showing first 3 out of 121 k-points)

Gap: 1.054 eV
Transition (v -> c):
  (s=0, k=60, n=28, [0.00, 0.00, 0.00]) -> (s=0, k=5, n=29, [-0.45, 0.00, 0.00])
# Writing to Band/gsq-26.gpw (mode='')

---

timing:  # [seconds]
  Total: 624.480  # ━━━━━━━━━━━━━━━━━━━━━━━━━━━━━━━━━━━━━━━━━━━━━━━━━━━━━━━━━
  Init:   10.148  # ━
  SCF:   614.052  # ━━━━━━━━━━━━━━━━━━━━━━━━━━━━━━━━━━━━━━━━━━━━━━━━━━━━━━━━

Max RSS: 1048.480  # MiB
