#  __  _  _
# | _ |_)|_||  |
# |__||  | ||/\| - 24.1.0

User:   s194113@n-62-29-21
Date:   Sat Apr 27 15:17:16 2024
Arch:   x86_64
Pid:    5028
CWD:    /work3/s194113/10302/10302_NM/MnI2
Python: 3.8.5
gpaw:   /zhome/87/8/147075/venv-name/gpaw/gpaw (10808453a8)
_gpaw:  /zhome/87/8/147075/venv-name/gpaw/
        _gpaw.cpython-38-x86_64-linux-gnu.so (10808453a8)
ase:    /zhome/87/8/147075/venv-name/ase/ase (version 3.23.0b1-c36115a2db)
numpy:  /zhome/87/8/147075/venv-name/lib/python3.8/site-packages/numpy (version 1.24.4)
scipy:  /zhome/87/8/147075/venv-name/lib/python3.8/site-packages/scipy (version 1.10.1)
libxc:  4.3.4
units:  Angstrom and eV
cores: 12
OpenMP: False
OMP_NUM_THREADS: 1

---
input parameters:
  kpts: 
    density: 6.0
    gamma: True
  magmoms: [[4.4079912, 0, 0], [0.08032672, 0, 0], [0.08032672, 0, 0]]
  mixer: 
    backend: 'pulay'
    beta: 0.05
    method: 'sum'
    nmaxold: 5
    weight: 100
  mode: 
    name: 'pw'
    ecut: 600.0
    qspiral: array([0.11627907, 0.11627907, 0.        ])
  parallel: 
    kpt: None
    domain: 1
    band: 1
    order: 'kdb'
    stridebands: False
    augment_grids: False
    sl_auto: False
    sl_default: None
    sl_diagonalize: None
    sl_inverse_cholesky: None
    sl_lcao: None
    sl_lrtddft: None
    use_elpa: False
    elpasolver: '2stage'
    buffer_size: None
    gpu: False
  symmetry: 
    point_group: False
    time_reversal: False
  xc: 
    name: 'LDA'

#                        
#                        
#                        
#                        
#              I         
#                        
#                        
#        Mn              
#          I             
#                        
#                        
#                        
#                        
#                        

atoms: [  # symbols, positions [Ang] and initial magnetic moments
  [ Mn, [   0.000000,    0.000000,    7.649535], [ 4.408,  0.000,  0.000]], # 0
  [  I, [   2.082858,    1.202539,    9.299069], [ 0.080,  0.000,  0.000]], # 1
  [  I, [   0.000000,    2.405077,    6.000000], [ 0.080,  0.000,  0.000]]] # 2

cell: [  # Ang
#     x            y            z
  [   4.165716,    0.000000,    0.000000],
  [  -2.082858,    3.607616,    0.000000],
  [   0.000000,    0.000000,   15.299069]]

periodic: [True      , True      , False     ]
lengths:  [  4.165716,   4.165716,  15.299069]  # Ang
angles:   [ 90.000000,  90.000000, 120.000000]

symmetry:
  number of symmetries: 1
  rotations: [
    [[ 1,  0,  0], [ 0,  1,  0], [ 0,  0,  1]]]

bz sampling:
  number of bz points: 121
  number of ibz points: 121
  monkhorst-pack size: [11, 11, 1]
  monkhorst-pack shift: [0, 0, 0]
  points and weights: [
    [[ -0.45454545,  -0.45454545,   0.00000000], 0.00826446],  # 0
    [[ -0.45454545,  -0.36363636,   0.00000000], 0.00826446],  # 1
    [[ -0.45454545,  -0.27272727,   0.00000000], 0.00826446],  # 2
    [[ -0.45454545,  -0.18181818,   0.00000000], 0.00826446],  # 3
    [[ -0.45454545,  -0.09090909,   0.00000000], 0.00826446],  # 4
    [[ -0.45454545,   0.00000000,   0.00000000], 0.00826446],  # 5
    [[ -0.45454545,   0.09090909,   0.00000000], 0.00826446],  # 6
    [[ -0.45454545,   0.18181818,   0.00000000], 0.00826446],  # 7
    [[ -0.45454545,   0.27272727,   0.00000000], 0.00826446],  # 8
    [[ -0.45454545,   0.36363636,   0.00000000], 0.00826446],  # 9
    # ...
    [[  0.45454545,   0.45454545,   0.00000000], 0.00826446]]  # 120

plane wave coefficients: 7719
cutoff: 600.0 eV

spin-components: 4  # (non-collinear spins)
bands: 42
valence electrons: 29.0
spin-degeneracy: 1
dtype: complex128

memory:
    wave functions: 1_248_301_824  # bytes  (104_025_152 per core)

parallelization:
    kpt:    12
    domain: 1
    band:   1

density:
  components: 4
  grid points: [24 24 90]
  charge: 0.0  # |e|

potential:
  grid points: [24 24 90]

species:
  Mn:
    name: Manganese
    id: 0d715a8018be061a6e9ea6f2d364ac92
    Z: 25.0
    valence: 15
    core: 10
    charge: 0.0
    file: /zhome/86/d/1666/PAW/gpaw-setups-0.9.20000/Mn.LDA.gz
    compensation charges: {type: gauss,
                           rc: 0.38,
                           lmax: 2}
    cutoffs: {filter: 2.14,
              core: 0.86}
    valence states:
      #              energy  rcut
      - 3s(2.00)   -85.387   1.275
      - 4s(2.00)    -5.282   1.275
      - 3p(6.00)   -54.493   1.281
      - 4p(0.00)    -1.471   1.281
      - 3d(5.00)    -7.009   1.138
      -  d          20.203   1.138
  
    # Using partial waves for Mn as LCAO basis

  I:
    name: Iodine
    id: b559721c0c096a7b4c8fc0e0f4de5cf4
    Z: 53.0
    valence: 7
    core: 46
    charge: 0.0
    file: /zhome/86/d/1666/PAW/gpaw-setups-0.9.20000/I.LDA.gz
    compensation charges: {type: gauss,
                           rc: 0.37,
                           lmax: 2}
    cutoffs: {filter: 2.06,
              core: 2.90}
    valence states:
      #              energy  rcut
      - 5s(2.00)   -17.626   1.164
      - 5p(5.00)    -7.241   1.164
      -  s           9.585   1.164
      -  p          19.970   1.164
      -  d           0.000   1.164
  
    # Using partial waves for I as LCAO basis

Reference energy: -418222.442431  # eV

eigensolver:
  name: 'Davidson'
  niter: 2
  converge_bands: 'occupied'
Density mixing:
  Method: sum
  Backend: pulay
  Linear mixing parameter: 0.05
  old densities: 5
  Damping of long wavelength oscillations: 100
occupation numbers:
  Fermi-Dirac:
    width: 0.1000  # eV
  

poisson solver:
  ecut: 4800.0  # eV

xc functional:
  name: None

convergence criteria:
- Maximum [total energy] change in last 3 cyles: 0.0005 eV / valence electron
- Maximum integral of absolute [dens]ity change: 0.0001 electrons / valence electron
- Maximum integral of absolute [eigenst]ate change: 4e-08 eV^2 / valence electron
maximum number of iterations: 333

#      iter     time        total  log10-change:
#                          energy   eigst   dens
# iter:   1 15:17:41   -15.168638                  +4.6,+0.0,+0.0
# iter:   2 15:17:57   -15.190807   -0.64  -1.49   +4.6,-0.0,+0.0
# iter:   3 15:18:12   -15.124928   -1.13  -1.52   +4.6,+0.0,+0.0
# iter:   4 15:18:28   -15.133660   -1.38  -1.58   +4.7,+0.0,+0.0
# iter:   5 15:18:43   -15.181707   -1.68  -1.79   +4.8,+0.0,-0.0
# iter:   6 15:18:59   -15.155953   -2.03  -2.26   +4.9,+0.0,-0.0
# iter:   7 15:19:15   -15.160633   -1.72  -2.29   +4.8,+0.0,+0.0
# iter:   8 15:19:30   -15.132549   -2.21  -2.35   +4.8,+0.0,+0.0
# iter:   9 15:19:46   -15.134508   -2.80  -2.78   +4.8,+0.0,-0.0
# iter:  10 15:20:01   -15.132555c  -2.86  -2.74   +4.8,+0.0,+0.0
# iter:  11 15:20:17   -15.133077c  -3.30  -2.83   +4.8,+0.0,+0.0
# iter:  12 15:20:32   -15.134392c  -3.47  -2.85   +4.8,+0.0,+0.0
# iter:  13 15:20:48   -15.134486c  -3.61  -2.82   +4.8,+0.0,+0.0
# iter:  14 15:21:03   -15.131931c  -3.26  -2.77   +4.8,+0.0,+0.0
# iter:  15 15:21:19   -15.131954c  -4.05  -3.02   +4.8,+0.0,+0.0
# iter:  16 15:21:34   -15.131991c  -4.18  -3.16   +4.8,+0.0,-0.0
# iter:  17 15:21:50   -15.132808c  -3.81  -3.23   +4.8,+0.0,+0.0
# iter:  18 15:22:05   -15.132140c  -4.36  -3.08   +4.8,+0.0,-0.0
# iter:  19 15:22:21   -15.132203c  -4.76  -3.37   +4.8,+0.0,+0.0
# iter:  20 15:22:36   -15.132113c  -4.75  -3.41   +4.8,+0.0,+0.0
# iter:  21 15:22:52   -15.132046c  -4.70  -3.62   +4.8,+0.0,+0.0
# iter:  22 15:23:07   -15.132100c  -4.90  -3.76   +4.8,+0.0,+0.0
# iter:  23 15:23:23   -15.132059c  -5.33  -3.79   +4.8,+0.0,+0.0
# iter:  24 15:23:38   -15.132055c  -5.33  -3.93   +4.8,+0.0,+0.0
# iter:  25 15:23:53   -15.132066c  -5.58  -3.98   +4.8,+0.0,+0.0
# iter:  26 15:24:09   -15.132068c  -5.43  -4.13c  +4.8,+0.0,+0.0
# iter:  27 15:24:24   -15.132062c  -5.73  -4.05c  +4.8,+0.0,+0.0
# iter:  28 15:24:40   -15.132065c  -5.94  -4.32c  +4.8,+0.0,+0.0
# iter:  29 15:24:55   -15.132063c  -6.13  -4.41c  +4.8,+0.0,+0.0
# iter:  30 15:25:11   -15.132063c  -6.31  -4.47c  +4.8,+0.0,+0.0
# iter:  31 15:25:26   -15.132064c  -6.42  -4.65c  +4.8,+0.0,+0.0
# iter:  32 15:25:41   -15.132064c  -6.57  -4.75c  +4.8,+0.0,+0.0
# iter:  33 15:25:57   -15.132065c  -6.71  -4.81c  +4.8,+0.0,+0.0
# iter:  34 15:26:12   -15.132064c  -6.84  -4.90c  +4.8,+0.0,+0.0
# iter:  35 15:26:27   -15.132064c  -7.00  -4.99c  +4.8,+0.0,+0.0
# iter:  36 15:26:43   -15.132064c  -7.13  -5.00c  +4.8,+0.0,+0.0
# iter:  37 15:26:58   -15.132064c  -7.26  -5.04c  +4.8,+0.0,+0.0
# iter:  38 15:27:14   -15.132064c  -7.40c -5.09c  +4.8,+0.0,+0.0
scf_steps: 38
energies:  # eV
  coulomb:         -12.761633
  zero:              0.092995
  xc:              -17.200296
  external:          0.000000
  kinetic:          14.737594
  spinorbit:         0.000000
  entropy:          -0.001449
  total:           -15.132788
  extrapolated:    -15.132064

dipole moment: [-5.479460, -9.490702, -13.312037]  # |e|*Ang

total magnetic moment: [4.835051, 0.013427, 0.000000]

local magnetic moments: [
  [ 4.345682, -0.000443,  0.000000],  # Mn 0
  [ 0.049228, -0.044108, -0.000000],  # I  1
  [ 0.049228, -0.044109,  0.000000]]  # I  2


Fermi level: -1.258 eV

kpt = [-0.455, -0.455, 0.000], weight = 0.008:
  Band      eig [eV]   occ [0-1]
     0       -82.199       1.000
   ...
    21        -3.975       1.000
    22        -3.871       1.000
    23        -3.868       1.000
    24        -3.698       1.000
    25        -3.652       1.000
    26        -3.586       1.000
    27        -2.081       1.000
    28        -2.065       1.000
    29        -0.599       0.001
    30        -0.167       0.000
    31        -0.151       0.000
    32         0.497       0.000
    33         0.635       0.000
    34         1.247       0.000
    35         2.247       0.000
    36         2.920       0.000
   ...
    41         4.986       0.000

kpt = [-0.455, -0.364, 0.000], weight = 0.008:
  Band      eig [eV]   occ [0-1]
     0       -82.199       1.000
   ...
    21        -3.989       1.000
    22        -3.901       1.000
    23        -3.875       1.000
    24        -3.740       1.000
    25        -3.570       1.000
    26        -3.519       1.000
    27        -2.190       1.000
    28        -2.088       1.000
    29        -0.488       0.000
    30        -0.193       0.000
    31        -0.148       0.000
    32         0.465       0.000
    33         0.577       0.000
    34         1.386       0.000
    35         2.377       0.000
    36         3.091       0.000
   ...
    41         5.057       0.000

kpt = [-0.455, -0.273, 0.000], weight = 0.008:
  Band      eig [eV]   occ [0-1]
     0       -82.199       1.000
   ...
    21        -4.121       1.000
    22        -3.940       1.000
    23        -3.823       1.000
    24        -3.761       1.000
    25        -3.491       1.000
    26        -3.481       1.000
    27        -2.293       1.000
    28        -2.112       1.000
    29        -0.343       0.000
    30        -0.252       0.000
    31        -0.152       0.000
    32         0.393       0.000
    33         0.560       0.000
    34         1.655       0.000
    35         2.408       0.000
    36         3.651       0.000
   ...
    41         4.927       0.000
(only showing first 3 out of 121 k-points)

Gap: 1.019 eV
Transition (v -> c):
  (s=0, k=60, n=28, [0.00, 0.00, 0.00]) -> (s=0, k=115, n=29, [0.45, 0.00, 0.00])
# Writing to Band/gsq-85.gpw (mode='')

