#  __  _  _
# | _ |_)|_||  |
# |__||  | ||/\| - 24.1.0

User:   s194113@n-62-29-21
Date:   Sat Apr 27 10:09:06 2024
Arch:   x86_64
Pid:    5028
CWD:    /work3/s194113/10302/10302_NM/MnI2
Python: 3.8.5
gpaw:   /zhome/87/8/147075/venv-name/gpaw/gpaw (10808453a8)
_gpaw:  /zhome/87/8/147075/venv-name/gpaw/
        _gpaw.cpython-38-x86_64-linux-gnu.so (10808453a8)
ase:    /zhome/87/8/147075/venv-name/ase/ase (version 3.23.0b1-c36115a2db)
numpy:  /zhome/87/8/147075/venv-name/lib/python3.8/site-packages/numpy (version 1.24.4)
scipy:  /zhome/87/8/147075/venv-name/lib/python3.8/site-packages/scipy (version 1.10.1)
libxc:  4.3.4
units:  Angstrom and eV
cores: 12
OpenMP: False
OMP_NUM_THREADS: 1

---
input parameters:
  kpts: 
    density: 6.0
    gamma: True
  magmoms: [[4.4079912, 0, 0], [0.08032672, 0, 0], [0.08032672, 0, 0]]
  mixer: 
    backend: 'pulay'
    beta: 0.05
    method: 'sum'
    nmaxold: 5
    weight: 100
  mode: 
    name: 'pw'
    ecut: 600.0
    qspiral: array([0.34126984, 0.31746032, 0.        ])
  parallel: 
    kpt: None
    domain: 1
    band: 1
    order: 'kdb'
    stridebands: False
    augment_grids: False
    sl_auto: False
    sl_default: None
    sl_diagonalize: None
    sl_inverse_cholesky: None
    sl_lcao: None
    sl_lrtddft: None
    use_elpa: False
    elpasolver: '2stage'
    buffer_size: None
    gpu: False
  symmetry: 
    point_group: False
    time_reversal: False
  xc: 
    name: 'LDA'

#                        
#                        
#                        
#                        
#              I         
#                        
#                        
#        Mn              
#          I             
#                        
#                        
#                        
#                        
#                        

atoms: [  # symbols, positions [Ang] and initial magnetic moments
  [ Mn, [   0.000000,    0.000000,    7.649535], [ 4.408,  0.000,  0.000]], # 0
  [  I, [   2.082858,    1.202539,    9.299069], [ 0.080,  0.000,  0.000]], # 1
  [  I, [   0.000000,    2.405077,    6.000000], [ 0.080,  0.000,  0.000]]] # 2

cell: [  # Ang
#     x            y            z
  [   4.165716,    0.000000,    0.000000],
  [  -2.082858,    3.607616,    0.000000],
  [   0.000000,    0.000000,   15.299069]]

periodic: [True      , True      , False     ]
lengths:  [  4.165716,   4.165716,  15.299069]  # Ang
angles:   [ 90.000000,  90.000000, 120.000000]

symmetry:
  number of symmetries: 1
  rotations: [
    [[ 1,  0,  0], [ 0,  1,  0], [ 0,  0,  1]]]

bz sampling:
  number of bz points: 121
  number of ibz points: 121
  monkhorst-pack size: [11, 11, 1]
  monkhorst-pack shift: [0, 0, 0]
  points and weights: [
    [[ -0.45454545,  -0.45454545,   0.00000000], 0.00826446],  # 0
    [[ -0.45454545,  -0.36363636,   0.00000000], 0.00826446],  # 1
    [[ -0.45454545,  -0.27272727,   0.00000000], 0.00826446],  # 2
    [[ -0.45454545,  -0.18181818,   0.00000000], 0.00826446],  # 3
    [[ -0.45454545,  -0.09090909,   0.00000000], 0.00826446],  # 4
    [[ -0.45454545,   0.00000000,   0.00000000], 0.00826446],  # 5
    [[ -0.45454545,   0.09090909,   0.00000000], 0.00826446],  # 6
    [[ -0.45454545,   0.18181818,   0.00000000], 0.00826446],  # 7
    [[ -0.45454545,   0.27272727,   0.00000000], 0.00826446],  # 8
    [[ -0.45454545,   0.36363636,   0.00000000], 0.00826446],  # 9
    # ...
    [[  0.45454545,   0.45454545,   0.00000000], 0.00826446]]  # 120

plane wave coefficients: 7719
cutoff: 600.0 eV

spin-components: 4  # (non-collinear spins)
bands: 42
valence electrons: 29.0
spin-degeneracy: 1
dtype: complex128

memory:
    wave functions: 1_248_301_824  # bytes  (104_025_152 per core)

parallelization:
    kpt:    12
    domain: 1
    band:   1

density:
  components: 4
  grid points: [24 24 90]
  charge: 0.0  # |e|

potential:
  grid points: [24 24 90]

species:
  Mn:
    name: Manganese
    id: 0d715a8018be061a6e9ea6f2d364ac92
    Z: 25.0
    valence: 15
    core: 10
    charge: 0.0
    file: /zhome/86/d/1666/PAW/gpaw-setups-0.9.20000/Mn.LDA.gz
    compensation charges: {type: gauss,
                           rc: 0.38,
                           lmax: 2}
    cutoffs: {filter: 2.14,
              core: 0.86}
    valence states:
      #              energy  rcut
      - 3s(2.00)   -85.387   1.275
      - 4s(2.00)    -5.282   1.275
      - 3p(6.00)   -54.493   1.281
      - 4p(0.00)    -1.471   1.281
      - 3d(5.00)    -7.009   1.138
      -  d          20.203   1.138
  
    # Using partial waves for Mn as LCAO basis

  I:
    name: Iodine
    id: b559721c0c096a7b4c8fc0e0f4de5cf4
    Z: 53.0
    valence: 7
    core: 46
    charge: 0.0
    file: /zhome/86/d/1666/PAW/gpaw-setups-0.9.20000/I.LDA.gz
    compensation charges: {type: gauss,
                           rc: 0.37,
                           lmax: 2}
    cutoffs: {filter: 2.06,
              core: 2.90}
    valence states:
      #              energy  rcut
      - 5s(2.00)   -17.626   1.164
      - 5p(5.00)    -7.241   1.164
      -  s           9.585   1.164
      -  p          19.970   1.164
      -  d           0.000   1.164
  
    # Using partial waves for I as LCAO basis

Reference energy: -418222.442431  # eV

eigensolver:
  name: 'Davidson'
  niter: 2
  converge_bands: 'occupied'
Density mixing:
  Method: sum
  Backend: pulay
  Linear mixing parameter: 0.05
  old densities: 5
  Damping of long wavelength oscillations: 100
occupation numbers:
  Fermi-Dirac:
    width: 0.1000  # eV
  

poisson solver:
  ecut: 4800.0  # eV

xc functional:
  name: None

convergence criteria:
- Maximum [total energy] change in last 3 cyles: 0.0005 eV / valence electron
- Maximum integral of absolute [dens]ity change: 0.0001 electrons / valence electron
- Maximum integral of absolute [eigenst]ate change: 4e-08 eV^2 / valence electron
maximum number of iterations: 333

#      iter     time        total  log10-change:
#                          energy   eigst   dens
# iter:   1 10:09:31   -14.620381                  +4.6,+0.0,+0.0
# iter:   2 10:09:46   -15.135338   -0.06  -1.49   +4.1,-0.0,+0.0
# iter:   3 10:10:01   -15.137314   -0.69  -1.52   +4.0,-0.0,+0.0
# iter:   4 10:10:17   -15.156811   -1.01  -1.56   +4.1,-0.0,-0.0
# iter:   5 10:10:32   -15.256807   -1.30  -1.75   +4.3,-0.0,-0.0
# iter:   6 10:10:48   -15.156027   -1.56  -2.14   +4.4,-0.0,+0.0
# iter:   7 10:11:03   -15.147989   -1.69  -2.30   +4.3,-0.0,+0.0
# iter:   8 10:11:19   -15.141331   -2.11  -2.23   +4.3,+0.0,+0.0
# iter:   9 10:11:34   -15.143387c  -2.35  -2.95   +4.3,+0.0,+0.0
# iter:  10 10:11:49   -15.141701c  -2.56  -2.94   +4.3,+0.0,+0.0
# iter:  11 10:12:05   -15.141722c  -2.78  -3.13   +4.3,+0.0,-0.0
# iter:  12 10:12:20   -15.141786c  -2.96  -3.24   +4.3,+0.0,-0.0
# iter:  13 10:12:35   -15.142152c  -3.10  -3.43   +4.3,+0.0,-0.0
# iter:  14 10:12:50   -15.141897c  -3.32  -3.42   +4.3,+0.0,+0.0
# iter:  15 10:13:05   -15.142068c  -3.51  -3.69   +4.3,+0.0,+0.0
# iter:  16 10:13:21   -15.141961c  -3.67  -3.46   +4.3,+0.0,+0.0
# iter:  17 10:13:36   -15.141887c  -3.81  -3.66   +4.3,+0.0,+0.0
# iter:  18 10:13:51   -15.141892c  -4.00  -4.48c  +4.3,+0.0,+0.0
# iter:  19 10:14:06   -15.141895c  -4.17  -4.44c  +4.3,+0.0,+0.0
# iter:  20 10:14:21   -15.141895c  -4.32  -4.45c  +4.3,+0.0,+0.0
# iter:  21 10:14:36   -15.141897c  -4.48  -4.29c  +4.3,+0.0,+0.0
# iter:  22 10:14:52   -15.141898c  -4.63  -4.35c  +4.3,+0.0,+0.0
# iter:  23 10:15:07   -15.141898c  -4.77  -4.28c  +4.3,+0.0,+0.0
# iter:  24 10:15:22   -15.141900c  -4.92  -4.41c  +4.3,+0.0,+0.0
# iter:  25 10:15:37   -15.141901c  -5.05  -4.48c  +4.3,+0.0,+0.0
# iter:  26 10:15:52   -15.141901c  -5.20  -4.52c  +4.3,+0.0,+0.0
# iter:  27 10:16:08   -15.141901c  -5.34  -4.53c  +4.3,+0.0,+0.0
# iter:  28 10:16:23   -15.141901c  -5.48  -4.56c  +4.3,+0.0,+0.0
# iter:  29 10:16:38   -15.141900c  -5.61  -4.96c  +4.3,+0.0,+0.0
# iter:  30 10:16:53   -15.141900c  -5.74  -5.12c  +4.3,+0.0,+0.0
# iter:  31 10:17:08   -15.141901c  -5.87  -5.18c  +4.3,+0.0,+0.0
# iter:  32 10:17:23   -15.141900c  -6.00  -5.28c  +4.3,+0.0,+0.0
# iter:  33 10:17:39   -15.141901c  -6.13  -5.34c  +4.3,+0.0,+0.0
# iter:  34 10:17:54   -15.141901c  -6.27  -5.48c  +4.3,+0.0,+0.0
# iter:  35 10:18:09   -15.141901c  -6.40  -5.55c  +4.3,+0.0,+0.0
# iter:  36 10:18:24   -15.141901c  -6.53  -5.79c  +4.3,+0.0,-0.0
# iter:  37 10:18:39   -15.141901c  -6.66  -5.78c  +4.3,+0.0,+0.0
# iter:  38 10:18:54   -15.141901c  -6.78  -5.78c  +4.3,+0.0,+0.0
# iter:  39 10:19:09   -15.141901c  -6.90  -6.10c  +4.3,+0.0,+0.0
# iter:  40 10:19:25   -15.141901c  -7.02  -6.17c  +4.3,+0.0,+0.0
# iter:  41 10:19:40   -15.141901c  -7.14  -5.80c  +4.3,+0.0,+0.0
# iter:  42 10:19:55   -15.141901c  -7.26  -6.27c  +4.3,+0.0,+0.0
# iter:  43 10:20:10   -15.141901c  -7.38  -6.60c  +4.3,+0.0,+0.0
# iter:  44 10:20:25   -15.141901c  -7.50c -6.72c  +4.3,+0.0,+0.0
scf_steps: 44
energies:  # eV
  coulomb:         -12.454768
  zero:              0.093392
  xc:              -17.137502
  external:          0.000000
  kinetic:          14.357437
  spinorbit:         0.000000
  entropy:          -0.000918
  total:           -15.142360
  extrapolated:    -15.141901

dipole moment: [-4.690094, -8.171279, -9.142450]  # |e|*Ang

total magnetic moment: [4.297516, 0.000264, 0.000000]

local magnetic moments: [
  [ 4.322250,  0.000002,  0.000000],  # Mn 0
  [-0.001952, -0.000000, -0.000000],  # I  1
  [ 0.001059, -0.001640, -0.000000]]  # I  2


Fermi level: -1.215 eV

kpt = [-0.455, -0.455, 0.000], weight = 0.008:
  Band      eig [eV]   occ [0-1]
     0       -82.167       1.000
   ...
    21        -4.286       1.000
    22        -4.050       1.000
    23        -3.725       1.000
    24        -3.681       1.000
    25        -3.578       1.000
    26        -3.541       1.000
    27        -2.242       1.000
    28        -2.193       1.000
    29        -0.314       0.000
    30        -0.188       0.000
    31        -0.150       0.000
    32         0.435       0.000
    33         0.462       0.000
    34         1.797       0.000
    35         2.568       0.000
    36         3.880       0.000
   ...
    41         5.303       0.000

kpt = [-0.455, -0.364, 0.000], weight = 0.008:
  Band      eig [eV]   occ [0-1]
     0       -82.167       1.000
   ...
    21        -4.034       1.000
    22        -3.999       1.000
    23        -3.755       1.000
    24        -3.650       1.000
    25        -3.531       1.000
    26        -3.397       1.000
    27        -2.276       1.000
    28        -2.081       1.000
    29        -0.313       0.000
    30        -0.261       0.000
    31        -0.164       0.000
    32         0.420       0.000
    33         0.516       0.000
    34         1.688       0.000
    35         2.411       0.000
    36         3.579       0.000
   ...
    41         4.744       0.000

kpt = [-0.455, -0.273, 0.000], weight = 0.008:
  Band      eig [eV]   occ [0-1]
     0       -82.167       1.000
   ...
    21        -3.926       1.000
    22        -3.732       1.000
    23        -3.690       1.000
    24        -3.549       1.000
    25        -3.442       1.000
    26        -3.269       1.000
    27        -2.243       1.000
    28        -1.953       0.999
    29        -0.451       0.000
    30        -0.265       0.000
    31        -0.160       0.000
    32         0.424       0.000
    33         0.547       0.000
    34         1.518       0.000
    35         2.199       0.000
    36         3.128       0.000
   ...
    41         4.614       0.000
(only showing first 3 out of 121 k-points)

Gap: 1.426 eV
Transition (v -> c):
  (s=0, k=40, n=28, [-0.18, 0.18, 0.00]) -> (s=0, k=97, n=29, [0.27, 0.36, 0.00])
# Writing to Band/gsq-56.gpw (mode='')

---

timing:  # [seconds]
  Total: 679.800  # ━━━━━━━━━━━━━━━━━━━━━━━━━━━━━━━━━━━━━━━━━━━━━━━━━━━━━━━━━
  Init:   10.174  # ━
  SCF:   669.251  # ━━━━━━━━━━━━━━━━━━━━━━━━━━━━━━━━━━━━━━━━━━━━━━━━━━━━━━━━

Max RSS: 1642.418  # MiB
