#  __  _  _
# | _ |_)|_||  |
# |__||  | ||/\| - 24.1.0

User:   s194113@n-62-29-21
Date:   Sat Apr 27 11:26:50 2024
Arch:   x86_64
Pid:    5028
CWD:    /work3/s194113/10302/10302_NM/MnI2
Python: 3.8.5
gpaw:   /zhome/87/8/147075/venv-name/gpaw/gpaw (10808453a8)
_gpaw:  /zhome/87/8/147075/venv-name/gpaw/
        _gpaw.cpython-38-x86_64-linux-gnu.so (10808453a8)
ase:    /zhome/87/8/147075/venv-name/ase/ase (version 3.23.0b1-c36115a2db)
numpy:  /zhome/87/8/147075/venv-name/lib/python3.8/site-packages/numpy (version 1.24.4)
scipy:  /zhome/87/8/147075/venv-name/lib/python3.8/site-packages/scipy (version 1.10.1)
libxc:  4.3.4
units:  Angstrom and eV
cores: 12
OpenMP: False
OMP_NUM_THREADS: 1

---
input parameters:
  kpts: 
    density: 6.0
    gamma: True
  magmoms: [[4.4079912, 0, 0], [0.08032672, 0, 0], [0.08032672, 0, 0]]
  mixer: 
    backend: 'pulay'
    beta: 0.05
    method: 'sum'
    nmaxold: 5
    weight: 100
  mode: 
    name: 'pw'
    ecut: 600.0
    qspiral: array([0.28682171, 0.28682171, 0.        ])
  parallel: 
    kpt: None
    domain: 1
    band: 1
    order: 'kdb'
    stridebands: False
    augment_grids: False
    sl_auto: False
    sl_default: None
    sl_diagonalize: None
    sl_inverse_cholesky: None
    sl_lcao: None
    sl_lrtddft: None
    use_elpa: False
    elpasolver: '2stage'
    buffer_size: None
    gpu: False
  symmetry: 
    point_group: False
    time_reversal: False
  xc: 
    name: 'LDA'

#                        
#                        
#                        
#                        
#              I         
#                        
#                        
#        Mn              
#          I             
#                        
#                        
#                        
#                        
#                        

atoms: [  # symbols, positions [Ang] and initial magnetic moments
  [ Mn, [   0.000000,    0.000000,    7.649535], [ 4.408,  0.000,  0.000]], # 0
  [  I, [   2.082858,    1.202539,    9.299069], [ 0.080,  0.000,  0.000]], # 1
  [  I, [   0.000000,    2.405077,    6.000000], [ 0.080,  0.000,  0.000]]] # 2

cell: [  # Ang
#     x            y            z
  [   4.165716,    0.000000,    0.000000],
  [  -2.082858,    3.607616,    0.000000],
  [   0.000000,    0.000000,   15.299069]]

periodic: [True      , True      , False     ]
lengths:  [  4.165716,   4.165716,  15.299069]  # Ang
angles:   [ 90.000000,  90.000000, 120.000000]

symmetry:
  number of symmetries: 1
  rotations: [
    [[ 1,  0,  0], [ 0,  1,  0], [ 0,  0,  1]]]

bz sampling:
  number of bz points: 121
  number of ibz points: 121
  monkhorst-pack size: [11, 11, 1]
  monkhorst-pack shift: [0, 0, 0]
  points and weights: [
    [[ -0.45454545,  -0.45454545,   0.00000000], 0.00826446],  # 0
    [[ -0.45454545,  -0.36363636,   0.00000000], 0.00826446],  # 1
    [[ -0.45454545,  -0.27272727,   0.00000000], 0.00826446],  # 2
    [[ -0.45454545,  -0.18181818,   0.00000000], 0.00826446],  # 3
    [[ -0.45454545,  -0.09090909,   0.00000000], 0.00826446],  # 4
    [[ -0.45454545,   0.00000000,   0.00000000], 0.00826446],  # 5
    [[ -0.45454545,   0.09090909,   0.00000000], 0.00826446],  # 6
    [[ -0.45454545,   0.18181818,   0.00000000], 0.00826446],  # 7
    [[ -0.45454545,   0.27272727,   0.00000000], 0.00826446],  # 8
    [[ -0.45454545,   0.36363636,   0.00000000], 0.00826446],  # 9
    # ...
    [[  0.45454545,   0.45454545,   0.00000000], 0.00826446]]  # 120

plane wave coefficients: 7719
cutoff: 600.0 eV

spin-components: 4  # (non-collinear spins)
bands: 42
valence electrons: 29.0
spin-degeneracy: 1
dtype: complex128

memory:
    wave functions: 1_248_301_824  # bytes  (104_025_152 per core)

parallelization:
    kpt:    12
    domain: 1
    band:   1

density:
  components: 4
  grid points: [24 24 90]
  charge: 0.0  # |e|

potential:
  grid points: [24 24 90]

species:
  Mn:
    name: Manganese
    id: 0d715a8018be061a6e9ea6f2d364ac92
    Z: 25.0
    valence: 15
    core: 10
    charge: 0.0
    file: /zhome/86/d/1666/PAW/gpaw-setups-0.9.20000/Mn.LDA.gz
    compensation charges: {type: gauss,
                           rc: 0.38,
                           lmax: 2}
    cutoffs: {filter: 2.14,
              core: 0.86}
    valence states:
      #              energy  rcut
      - 3s(2.00)   -85.387   1.275
      - 4s(2.00)    -5.282   1.275
      - 3p(6.00)   -54.493   1.281
      - 4p(0.00)    -1.471   1.281
      - 3d(5.00)    -7.009   1.138
      -  d          20.203   1.138
  
    # Using partial waves for Mn as LCAO basis

  I:
    name: Iodine
    id: b559721c0c096a7b4c8fc0e0f4de5cf4
    Z: 53.0
    valence: 7
    core: 46
    charge: 0.0
    file: /zhome/86/d/1666/PAW/gpaw-setups-0.9.20000/I.LDA.gz
    compensation charges: {type: gauss,
                           rc: 0.37,
                           lmax: 2}
    cutoffs: {filter: 2.06,
              core: 2.90}
    valence states:
      #              energy  rcut
      - 5s(2.00)   -17.626   1.164
      - 5p(5.00)    -7.241   1.164
      -  s           9.585   1.164
      -  p          19.970   1.164
      -  d           0.000   1.164
  
    # Using partial waves for I as LCAO basis

Reference energy: -418222.442431  # eV

eigensolver:
  name: 'Davidson'
  niter: 2
  converge_bands: 'occupied'
Density mixing:
  Method: sum
  Backend: pulay
  Linear mixing parameter: 0.05
  old densities: 5
  Damping of long wavelength oscillations: 100
occupation numbers:
  Fermi-Dirac:
    width: 0.1000  # eV
  

poisson solver:
  ecut: 4800.0  # eV

xc functional:
  name: None

convergence criteria:
- Maximum [total energy] change in last 3 cyles: 0.0005 eV / valence electron
- Maximum integral of absolute [dens]ity change: 0.0001 electrons / valence electron
- Maximum integral of absolute [eigenst]ate change: 4e-08 eV^2 / valence electron
maximum number of iterations: 333

#      iter     time        total  log10-change:
#                          energy   eigst   dens
# iter:   1 11:27:15   -14.797218                  +4.6,+0.0,+0.0
# iter:   2 11:27:31   -15.157806   -0.17  -1.49   +4.1,-0.0,+0.0
# iter:   3 11:27:46   -15.139623   -0.78  -1.52   +4.1,-0.0,+0.0
# iter:   4 11:28:02   -15.155993   -1.07  -1.56   +4.2,-0.0,-0.0
# iter:   5 11:28:17   -15.242008   -1.37  -1.75   +4.4,+0.0,-0.0
# iter:   6 11:28:33   -15.162999   -1.67  -2.17   +4.5,+0.0,-0.0
# iter:   7 11:28:48   -15.161716   -1.60  -2.29   +4.4,+0.0,-0.0
# iter:   8 11:29:04   -15.141424   -2.17  -2.17   +4.4,+0.0,-0.0
# iter:   9 11:29:19   -15.141252   -2.44  -2.91   +4.4,+0.0,-0.0
# iter:  10 11:29:35   -15.143158c  -2.64  -3.01   +4.4,+0.0,-0.0
# iter:  11 11:29:50   -15.141335c  -2.83  -2.89   +4.4,+0.0,-0.0
# iter:  12 11:30:05   -15.141444c  -3.09  -3.48   +4.4,+0.0,-0.0
# iter:  13 11:30:21   -15.141586c  -3.26  -3.51   +4.4,+0.0,-0.0
# iter:  14 11:30:37   -15.141559c  -3.47  -3.38   +4.4,+0.0,+0.0
# iter:  15 11:30:52   -15.141509c  -3.64  -3.47   +4.4,+0.0,-0.0
# iter:  16 11:31:07   -15.141518c  -3.82  -3.69   +4.4,+0.0,+0.0
# iter:  17 11:31:22   -15.141512c  -3.98  -3.71   +4.4,+0.0,+0.0
# iter:  18 11:31:38   -15.141506c  -4.14  -3.82   +4.4,+0.0,+0.0
# iter:  19 11:31:53   -15.141508c  -4.32  -3.87   +4.4,+0.0,+0.0
# iter:  20 11:32:08   -15.141515c  -4.45  -3.90   +4.4,+0.0,+0.0
# iter:  21 11:32:24   -15.141516c  -4.58  -3.95   +4.4,+0.0,+0.0
# iter:  22 11:32:39   -15.141514c  -4.75  -4.08c  +4.4,+0.0,+0.0
# iter:  23 11:32:54   -15.141524c  -4.85  -4.19c  +4.4,+0.0,+0.0
# iter:  24 11:33:09   -15.141520c  -4.94  -4.07c  +4.4,+0.0,+0.0
# iter:  25 11:33:24   -15.141518c  -5.18  -4.51c  +4.4,+0.0,+0.0
# iter:  26 11:33:40   -15.141518c  -5.31  -4.70c  +4.4,+0.0,+0.0
# iter:  27 11:33:55   -15.141519c  -5.45  -4.75c  +4.4,+0.0,+0.0
# iter:  28 11:34:10   -15.141518c  -5.58  -4.93c  +4.4,+0.0,+0.0
# iter:  29 11:34:25   -15.141518c  -5.71  -5.00c  +4.4,+0.0,+0.0
# iter:  30 11:34:41   -15.141519c  -5.84  -5.05c  +4.4,+0.0,+0.0
# iter:  31 11:34:56   -15.141519c  -5.97  -5.10c  +4.4,+0.0,+0.0
# iter:  32 11:35:11   -15.141519c  -6.09  -5.31c  +4.4,+0.0,+0.0
# iter:  33 11:35:26   -15.141519c  -6.22  -5.37c  +4.4,+0.0,+0.0
# iter:  34 11:35:42   -15.141519c  -6.34  -5.41c  +4.4,+0.0,+0.0
# iter:  35 11:35:57   -15.141519c  -6.47  -5.57c  +4.4,+0.0,+0.0
# iter:  36 11:36:12   -15.141519c  -6.59  -5.70c  +4.4,+0.0,+0.0
# iter:  37 11:36:27   -15.141519c  -6.71  -5.73c  +4.4,+0.0,+0.0
# iter:  38 11:36:42   -15.141519c  -6.83  -6.02c  +4.4,+0.0,+0.0
# iter:  39 11:36:58   -15.141519c  -6.95  -6.44c  +4.4,+0.0,+0.0
# iter:  40 11:37:13   -15.141519c  -7.07  -6.48c  +4.4,+0.0,+0.0
# iter:  41 11:37:28   -15.141519c  -7.19  -6.53c  +4.4,+0.0,+0.0
# iter:  42 11:37:44   -15.141519c  -7.31  -6.64c  +4.4,+0.0,+0.0
# iter:  43 11:37:59   -15.141519c  -7.43c -6.65c  +4.4,+0.0,+0.0
scf_steps: 43
energies:  # eV
  coulomb:         -12.466155
  zero:              0.093378
  xc:              -17.139950
  external:          0.000000
  kinetic:          14.371682
  spinorbit:         0.000000
  entropy:          -0.000948
  total:           -15.141993
  extrapolated:    -15.141519

dipole moment: [-4.849435, -8.399467, -9.882178]  # |e|*Ang

total magnetic moment: [4.393266, 0.003768, 0.000000]

local magnetic moments: [
  [ 4.323323, -0.000107,  0.000000],  # Mn 0
  [-0.002872, -0.012190,  0.000000],  # I  1
  [-0.002872, -0.012190,  0.000000]]  # I  2


Fermi level: -1.215 eV

kpt = [-0.455, -0.455, 0.000], weight = 0.008:
  Band      eig [eV]   occ [0-1]
     0       -82.169       1.000
   ...
    21        -4.206       1.000
    22        -4.031       1.000
    23        -3.778       1.000
    24        -3.651       1.000
    25        -3.563       1.000
    26        -3.559       1.000
    27        -2.208       1.000
    28        -2.201       1.000
    29        -0.334       0.000
    30        -0.198       0.000
    31        -0.141       0.000
    32         0.439       0.000
    33         0.478       0.000
    34         1.733       0.000
    35         2.513       0.000
    36         3.858       0.000
   ...
    41         5.088       0.000

kpt = [-0.455, -0.364, 0.000], weight = 0.008:
  Band      eig [eV]   occ [0-1]
     0       -82.169       1.000
   ...
    21        -4.049       1.000
    22        -3.961       1.000
    23        -3.791       1.000
    24        -3.656       1.000
    25        -3.536       1.000
    26        -3.416       1.000
    27        -2.271       1.000
    28        -2.045       1.000
    29        -0.369       0.000
    30        -0.250       0.000
    31        -0.151       0.000
    32         0.449       0.000
    33         0.531       0.000
    34         1.546       0.000
    35         2.337       0.000
    36         3.323       0.000
   ...
    41         4.835       0.000

kpt = [-0.455, -0.273, 0.000], weight = 0.008:
  Band      eig [eV]   occ [0-1]
     0       -82.169       1.000
   ...
    21        -3.953       1.000
    22        -3.745       1.000
    23        -3.739       1.000
    24        -3.601       1.000
    25        -3.451       1.000
    26        -3.302       1.000
    27        -2.256       1.000
    28        -1.933       0.999
    29        -0.462       0.001
    30        -0.273       0.000
    31        -0.149       0.000
    32         0.442       0.000
    33         0.577       0.000
    34         1.433       0.000
    35         2.126       0.000
    36         3.001       0.000
   ...
    41         4.661       0.000
(only showing first 3 out of 121 k-points)

Gap: 1.390 eV
Transition (v -> c):
  (s=0, k=93, n=28, [0.27, 0.00, 0.00]) -> (s=0, k=28, n=29, [-0.27, 0.09, 0.00])
# Writing to Band/gsq-63.gpw (mode='')

---

timing:  # [seconds]
  Total: 668.789  # ━━━━━━━━━━━━━━━━━━━━━━━━━━━━━━━━━━━━━━━━━━━━━━━━━━━━━━━━━
  Init:   10.077  # ━
  SCF:   658.310  # ━━━━━━━━━━━━━━━━━━━━━━━━━━━━━━━━━━━━━━━━━━━━━━━━━━━━━━━━

Max RSS: 1796.734  # MiB
