#  __  _  _
# | _ |_)|_||  |
# |__||  | ||/\| - 24.1.0

User:   s194113@n-62-29-21
Date:   Sat Apr 27 15:07:28 2024
Arch:   x86_64
Pid:    5028
CWD:    /work3/s194113/10302/10302_NM/MnI2
Python: 3.8.5
gpaw:   /zhome/87/8/147075/venv-name/gpaw/gpaw (10808453a8)
_gpaw:  /zhome/87/8/147075/venv-name/gpaw/
        _gpaw.cpython-38-x86_64-linux-gnu.so (10808453a8)
ase:    /zhome/87/8/147075/venv-name/ase/ase (version 3.23.0b1-c36115a2db)
numpy:  /zhome/87/8/147075/venv-name/lib/python3.8/site-packages/numpy (version 1.24.4)
scipy:  /zhome/87/8/147075/venv-name/lib/python3.8/site-packages/scipy (version 1.10.1)
libxc:  4.3.4
units:  Angstrom and eV
cores: 12
OpenMP: False
OMP_NUM_THREADS: 1

---
input parameters:
  kpts: 
    density: 6.0
    gamma: True
  magmoms: [[4.4079912, 0, 0], [0.08032672, 0, 0], [0.08032672, 0, 0]]
  mixer: 
    backend: 'pulay'
    beta: 0.05
    method: 'sum'
    nmaxold: 5
    weight: 100
  mode: 
    name: 'pw'
    ecut: 600.0
    qspiral: array([0.12403101, 0.12403101, 0.        ])
  parallel: 
    kpt: None
    domain: 1
    band: 1
    order: 'kdb'
    stridebands: False
    augment_grids: False
    sl_auto: False
    sl_default: None
    sl_diagonalize: None
    sl_inverse_cholesky: None
    sl_lcao: None
    sl_lrtddft: None
    use_elpa: False
    elpasolver: '2stage'
    buffer_size: None
    gpu: False
  symmetry: 
    point_group: False
    time_reversal: False
  xc: 
    name: 'LDA'

#                        
#                        
#                        
#                        
#              I         
#                        
#                        
#        Mn              
#          I             
#                        
#                        
#                        
#                        
#                        

atoms: [  # symbols, positions [Ang] and initial magnetic moments
  [ Mn, [   0.000000,    0.000000,    7.649535], [ 4.408,  0.000,  0.000]], # 0
  [  I, [   2.082858,    1.202539,    9.299069], [ 0.080,  0.000,  0.000]], # 1
  [  I, [   0.000000,    2.405077,    6.000000], [ 0.080,  0.000,  0.000]]] # 2

cell: [  # Ang
#     x            y            z
  [   4.165716,    0.000000,    0.000000],
  [  -2.082858,    3.607616,    0.000000],
  [   0.000000,    0.000000,   15.299069]]

periodic: [True      , True      , False     ]
lengths:  [  4.165716,   4.165716,  15.299069]  # Ang
angles:   [ 90.000000,  90.000000, 120.000000]

symmetry:
  number of symmetries: 1
  rotations: [
    [[ 1,  0,  0], [ 0,  1,  0], [ 0,  0,  1]]]

bz sampling:
  number of bz points: 121
  number of ibz points: 121
  monkhorst-pack size: [11, 11, 1]
  monkhorst-pack shift: [0, 0, 0]
  points and weights: [
    [[ -0.45454545,  -0.45454545,   0.00000000], 0.00826446],  # 0
    [[ -0.45454545,  -0.36363636,   0.00000000], 0.00826446],  # 1
    [[ -0.45454545,  -0.27272727,   0.00000000], 0.00826446],  # 2
    [[ -0.45454545,  -0.18181818,   0.00000000], 0.00826446],  # 3
    [[ -0.45454545,  -0.09090909,   0.00000000], 0.00826446],  # 4
    [[ -0.45454545,   0.00000000,   0.00000000], 0.00826446],  # 5
    [[ -0.45454545,   0.09090909,   0.00000000], 0.00826446],  # 6
    [[ -0.45454545,   0.18181818,   0.00000000], 0.00826446],  # 7
    [[ -0.45454545,   0.27272727,   0.00000000], 0.00826446],  # 8
    [[ -0.45454545,   0.36363636,   0.00000000], 0.00826446],  # 9
    # ...
    [[  0.45454545,   0.45454545,   0.00000000], 0.00826446]]  # 120

plane wave coefficients: 7719
cutoff: 600.0 eV

spin-components: 4  # (non-collinear spins)
bands: 42
valence electrons: 29.0
spin-degeneracy: 1
dtype: complex128

memory:
    wave functions: 1_248_301_824  # bytes  (104_025_152 per core)

parallelization:
    kpt:    12
    domain: 1
    band:   1

density:
  components: 4
  grid points: [24 24 90]
  charge: 0.0  # |e|

potential:
  grid points: [24 24 90]

species:
  Mn:
    name: Manganese
    id: 0d715a8018be061a6e9ea6f2d364ac92
    Z: 25.0
    valence: 15
    core: 10
    charge: 0.0
    file: /zhome/86/d/1666/PAW/gpaw-setups-0.9.20000/Mn.LDA.gz
    compensation charges: {type: gauss,
                           rc: 0.38,
                           lmax: 2}
    cutoffs: {filter: 2.14,
              core: 0.86}
    valence states:
      #              energy  rcut
      - 3s(2.00)   -85.387   1.275
      - 4s(2.00)    -5.282   1.275
      - 3p(6.00)   -54.493   1.281
      - 4p(0.00)    -1.471   1.281
      - 3d(5.00)    -7.009   1.138
      -  d          20.203   1.138
  
    # Using partial waves for Mn as LCAO basis

  I:
    name: Iodine
    id: b559721c0c096a7b4c8fc0e0f4de5cf4
    Z: 53.0
    valence: 7
    core: 46
    charge: 0.0
    file: /zhome/86/d/1666/PAW/gpaw-setups-0.9.20000/I.LDA.gz
    compensation charges: {type: gauss,
                           rc: 0.37,
                           lmax: 2}
    cutoffs: {filter: 2.06,
              core: 2.90}
    valence states:
      #              energy  rcut
      - 5s(2.00)   -17.626   1.164
      - 5p(5.00)    -7.241   1.164
      -  s           9.585   1.164
      -  p          19.970   1.164
      -  d           0.000   1.164
  
    # Using partial waves for I as LCAO basis

Reference energy: -418222.442431  # eV

eigensolver:
  name: 'Davidson'
  niter: 2
  converge_bands: 'occupied'
Density mixing:
  Method: sum
  Backend: pulay
  Linear mixing parameter: 0.05
  old densities: 5
  Damping of long wavelength oscillations: 100
occupation numbers:
  Fermi-Dirac:
    width: 0.1000  # eV
  

poisson solver:
  ecut: 4800.0  # eV

xc functional:
  name: None

convergence criteria:
- Maximum [total energy] change in last 3 cyles: 0.0005 eV / valence electron
- Maximum integral of absolute [dens]ity change: 0.0001 electrons / valence electron
- Maximum integral of absolute [eigenst]ate change: 4e-08 eV^2 / valence electron
maximum number of iterations: 333

#      iter     time        total  log10-change:
#                          energy   eigst   dens
# iter:   1 15:07:53   -15.161357                  +4.6,+0.0,+0.0
# iter:   2 15:08:08   -15.191140   -0.62  -1.49   +4.6,-0.0,+0.0
# iter:   3 15:08:24   -15.126689   -1.11  -1.52   +4.6,+0.0,-0.0
# iter:   4 15:08:39   -15.135797   -1.37  -1.58   +4.7,+0.0,-0.0
# iter:   5 15:08:54   -15.184974   -1.66  -1.79   +4.8,+0.0,-0.0
# iter:   6 15:09:09   -15.176228   -2.04  -2.26   +4.8,+0.0,+0.0
# iter:   7 15:09:25   -15.216620   -2.21  -2.26   +4.8,+0.0,+0.0
# iter:   8 15:09:40   -15.130395   -1.89  -2.13   +4.8,+0.0,+0.0
# iter:   9 15:09:55   -15.132963   -2.67  -2.87   +4.8,+0.0,+0.0
# iter:  10 15:10:11   -15.154370   -2.47  -2.90   +4.8,+0.0,+0.0
# iter:  11 15:10:26   -15.149169   -3.22  -2.46   +4.8,+0.0,+0.0
# iter:  12 15:10:41   -15.145378c  -3.48  -2.50   +4.8,+0.0,+0.0
# iter:  13 15:10:56   -15.138487c  -3.47  -2.55   +4.8,+0.0,-0.0
# iter:  14 15:11:11   -15.136362c  -3.79  -2.69   +4.8,+0.0,-0.0
# iter:  15 15:11:26   -15.132925c  -3.42  -2.79   +4.8,+0.0,-0.0
# iter:  16 15:11:42   -15.132922c  -3.91  -3.26   +4.8,+0.0,-0.0
# iter:  17 15:11:57   -15.133023c  -4.30  -3.38   +4.8,+0.0,-0.0
# iter:  18 15:12:12   -15.132950c  -4.35  -3.30   +4.8,+0.0,-0.0
# iter:  19 15:12:27   -15.133958c  -3.93  -3.44   +4.8,+0.0,-0.0
# iter:  20 15:12:42   -15.133002c  -4.02  -3.16   +4.8,+0.0,-0.0
# iter:  21 15:12:58   -15.132997c  -4.74  -3.89   +4.8,+0.0,-0.0
# iter:  22 15:13:13   -15.133001c  -5.16  -4.16c  +4.8,+0.0,-0.0
# iter:  23 15:13:28   -15.133001c  -5.34  -4.18c  +4.8,+0.0,-0.0
# iter:  24 15:13:43   -15.133005c  -5.45  -4.21c  +4.8,+0.0,+0.0
# iter:  25 15:13:58   -15.133004c  -5.61  -4.37c  +4.8,+0.0,-0.0
# iter:  26 15:14:14   -15.133003c  -5.76  -4.50c  +4.8,+0.0,-0.0
# iter:  27 15:14:29   -15.133003c  -5.90  -4.46c  +4.8,+0.0,-0.0
# iter:  28 15:14:44   -15.133004c  -6.03  -4.47c  +4.8,+0.0,-0.0
# iter:  29 15:14:59   -15.133005c  -6.18  -4.61c  +4.8,+0.0,-0.0
# iter:  30 15:15:14   -15.133005c  -6.33  -4.73c  +4.8,+0.0,-0.0
# iter:  31 15:15:30   -15.133005c  -6.47  -4.81c  +4.8,+0.0,-0.0
# iter:  32 15:15:45   -15.133004c  -6.61  -5.21c  +4.8,+0.0,-0.0
# iter:  33 15:16:00   -15.133005c  -6.76  -5.23c  +4.8,+0.0,-0.0
# iter:  34 15:16:15   -15.133005c  -6.90  -5.41c  +4.8,+0.0,-0.0
# iter:  35 15:16:31   -15.133004c  -7.01  -5.44c  +4.8,+0.0,-0.0
# iter:  36 15:16:46   -15.133005c  -7.16  -5.36c  +4.8,+0.0,-0.0
# iter:  37 15:17:01   -15.133005c  -7.29  -5.63c  +4.8,+0.0,-0.0
# iter:  38 15:17:16   -15.133005c  -7.42c -5.70c  +4.8,+0.0,-0.0
scf_steps: 38
energies:  # eV
  coulomb:         -12.741598
  zero:              0.092427
  xc:              -17.196084
  external:          0.000000
  kinetic:          14.712944
  spinorbit:         0.000000
  entropy:          -0.001387
  total:           -15.133698
  extrapolated:    -15.133005

dipole moment: [-5.452219, -9.443520, -13.165551]  # |e|*Ang

total magnetic moment: [4.816282, 0.013683, -0.000000]

local magnetic moments: [
  [ 4.344133, -0.000428, -0.000000],  # Mn 0
  [ 0.045366, -0.044825, -0.000000],  # I  1
  [ 0.045365, -0.044826, -0.000000]]  # I  2


Fermi level: -1.257 eV

kpt = [-0.455, -0.455, 0.000], weight = 0.008:
  Band      eig [eV]   occ [0-1]
     0       -82.196       1.000
   ...
    21        -3.981       1.000
    22        -3.883       1.000
    23        -3.874       1.000
    24        -3.685       1.000
    25        -3.646       1.000
    26        -3.584       1.000
    27        -2.085       1.000
    28        -2.073       1.000
    29        -0.587       0.001
    30        -0.168       0.000
    31        -0.149       0.000
    32         0.493       0.000
    33         0.631       0.000
    34         1.263       0.000
    35         2.265       0.000
    36         2.940       0.000
   ...
    41         5.055       0.000

kpt = [-0.455, -0.364, 0.000], weight = 0.008:
  Band      eig [eV]   occ [0-1]
     0       -82.196       1.000
   ...
    21        -3.979       1.000
    22        -3.900       1.000
    23        -3.863       1.000
    24        -3.743       1.000
    25        -3.567       1.000
    26        -3.514       1.000
    27        -2.191       1.000
    28        -2.080       1.000
    29        -0.489       0.000
    30        -0.196       0.000
    31        -0.147       0.000
    32         0.473       0.000
    33         0.573       0.000
    34         1.375       0.000
    35         2.371       0.000
    36         3.056       0.000
   ...
    41         5.096       0.000

kpt = [-0.455, -0.273, 0.000], weight = 0.008:
  Band      eig [eV]   occ [0-1]
     0       -82.196       1.000
   ...
    21        -4.117       1.000
    22        -3.929       1.000
    23        -3.825       1.000
    24        -3.757       1.000
    25        -3.483       1.000
    26        -3.478       1.000
    27        -2.283       1.000
    28        -2.109       1.000
    29        -0.344       0.000
    30        -0.258       0.000
    31        -0.151       0.000
    32         0.399       0.000
    33         0.559       0.000
    34         1.639       0.000
    35         2.383       0.000
    36         3.619       0.000
   ...
    41         4.917       0.000
(only showing first 3 out of 121 k-points)

Gap: 1.036 eV
Transition (v -> c):
  (s=0, k=60, n=28, [0.00, 0.00, 0.00]) -> (s=0, k=5, n=29, [-0.45, 0.00, 0.00])
# Writing to Band/gsq-84.gpw (mode='')

---

timing:  # [seconds]
  Total: 588.911  # ━━━━━━━━━━━━━━━━━━━━━━━━━━━━━━━━━━━━━━━━━━━━━━━━━━━━━━━━━
  Init:   10.232  # ━
  SCF:   578.212  # ━━━━━━━━━━━━━━━━━━━━━━━━━━━━━━━━━━━━━━━━━━━━━━━━━━━━━━━━

Max RSS: 1974.961  # MiB
