#  __  _  _
# | _ |_)|_||  |
# |__||  | ||/\| - 24.1.0

User:   s194113@n-62-29-21
Date:   Sat Apr 27 09:58:02 2024
Arch:   x86_64
Pid:    5028
CWD:    /work3/s194113/10302/10302_NM/MnI2
Python: 3.8.5
gpaw:   /zhome/87/8/147075/venv-name/gpaw/gpaw (10808453a8)
_gpaw:  /zhome/87/8/147075/venv-name/gpaw/
        _gpaw.cpython-38-x86_64-linux-gnu.so (10808453a8)
ase:    /zhome/87/8/147075/venv-name/ase/ase (version 3.23.0b1-c36115a2db)
numpy:  /zhome/87/8/147075/venv-name/lib/python3.8/site-packages/numpy (version 1.24.4)
scipy:  /zhome/87/8/147075/venv-name/lib/python3.8/site-packages/scipy (version 1.10.1)
libxc:  4.3.4
units:  Angstrom and eV
cores: 12
OpenMP: False
OMP_NUM_THREADS: 1

---
input parameters:
  kpts: 
    density: 6.0
    gamma: True
  magmoms: [[4.4079912, 0, 0], [0.08032672, 0, 0], [0.08032672, 0, 0]]
  mixer: 
    backend: 'pulay'
    beta: 0.05
    method: 'sum'
    nmaxold: 5
    weight: 100
  mode: 
    name: 'pw'
    ecut: 600.0
    qspiral: array([0.34920635, 0.3015873 , 0.        ])
  parallel: 
    kpt: None
    domain: 1
    band: 1
    order: 'kdb'
    stridebands: False
    augment_grids: False
    sl_auto: False
    sl_default: None
    sl_diagonalize: None
    sl_inverse_cholesky: None
    sl_lcao: None
    sl_lrtddft: None
    use_elpa: False
    elpasolver: '2stage'
    buffer_size: None
    gpu: False
  symmetry: 
    point_group: False
    time_reversal: False
  xc: 
    name: 'LDA'

#                        
#                        
#                        
#                        
#              I         
#                        
#                        
#        Mn              
#          I             
#                        
#                        
#                        
#                        
#                        

atoms: [  # symbols, positions [Ang] and initial magnetic moments
  [ Mn, [   0.000000,    0.000000,    7.649535], [ 4.408,  0.000,  0.000]], # 0
  [  I, [   2.082858,    1.202539,    9.299069], [ 0.080,  0.000,  0.000]], # 1
  [  I, [   0.000000,    2.405077,    6.000000], [ 0.080,  0.000,  0.000]]] # 2

cell: [  # Ang
#     x            y            z
  [   4.165716,    0.000000,    0.000000],
  [  -2.082858,    3.607616,    0.000000],
  [   0.000000,    0.000000,   15.299069]]

periodic: [True      , True      , False     ]
lengths:  [  4.165716,   4.165716,  15.299069]  # Ang
angles:   [ 90.000000,  90.000000, 120.000000]

symmetry:
  number of symmetries: 1
  rotations: [
    [[ 1,  0,  0], [ 0,  1,  0], [ 0,  0,  1]]]

bz sampling:
  number of bz points: 121
  number of ibz points: 121
  monkhorst-pack size: [11, 11, 1]
  monkhorst-pack shift: [0, 0, 0]
  points and weights: [
    [[ -0.45454545,  -0.45454545,   0.00000000], 0.00826446],  # 0
    [[ -0.45454545,  -0.36363636,   0.00000000], 0.00826446],  # 1
    [[ -0.45454545,  -0.27272727,   0.00000000], 0.00826446],  # 2
    [[ -0.45454545,  -0.18181818,   0.00000000], 0.00826446],  # 3
    [[ -0.45454545,  -0.09090909,   0.00000000], 0.00826446],  # 4
    [[ -0.45454545,   0.00000000,   0.00000000], 0.00826446],  # 5
    [[ -0.45454545,   0.09090909,   0.00000000], 0.00826446],  # 6
    [[ -0.45454545,   0.18181818,   0.00000000], 0.00826446],  # 7
    [[ -0.45454545,   0.27272727,   0.00000000], 0.00826446],  # 8
    [[ -0.45454545,   0.36363636,   0.00000000], 0.00826446],  # 9
    # ...
    [[  0.45454545,   0.45454545,   0.00000000], 0.00826446]]  # 120

plane wave coefficients: 7719
cutoff: 600.0 eV

spin-components: 4  # (non-collinear spins)
bands: 42
valence electrons: 29.0
spin-degeneracy: 1
dtype: complex128

memory:
    wave functions: 1_248_301_824  # bytes  (104_025_152 per core)

parallelization:
    kpt:    12
    domain: 1
    band:   1

density:
  components: 4
  grid points: [24 24 90]
  charge: 0.0  # |e|

potential:
  grid points: [24 24 90]

species:
  Mn:
    name: Manganese
    id: 0d715a8018be061a6e9ea6f2d364ac92
    Z: 25.0
    valence: 15
    core: 10
    charge: 0.0
    file: /zhome/86/d/1666/PAW/gpaw-setups-0.9.20000/Mn.LDA.gz
    compensation charges: {type: gauss,
                           rc: 0.38,
                           lmax: 2}
    cutoffs: {filter: 2.14,
              core: 0.86}
    valence states:
      #              energy  rcut
      - 3s(2.00)   -85.387   1.275
      - 4s(2.00)    -5.282   1.275
      - 3p(6.00)   -54.493   1.281
      - 4p(0.00)    -1.471   1.281
      - 3d(5.00)    -7.009   1.138
      -  d          20.203   1.138
  
    # Using partial waves for Mn as LCAO basis

  I:
    name: Iodine
    id: b559721c0c096a7b4c8fc0e0f4de5cf4
    Z: 53.0
    valence: 7
    core: 46
    charge: 0.0
    file: /zhome/86/d/1666/PAW/gpaw-setups-0.9.20000/I.LDA.gz
    compensation charges: {type: gauss,
                           rc: 0.37,
                           lmax: 2}
    cutoffs: {filter: 2.06,
              core: 2.90}
    valence states:
      #              energy  rcut
      - 5s(2.00)   -17.626   1.164
      - 5p(5.00)    -7.241   1.164
      -  s           9.585   1.164
      -  p          19.970   1.164
      -  d           0.000   1.164
  
    # Using partial waves for I as LCAO basis

Reference energy: -418222.442431  # eV

eigensolver:
  name: 'Davidson'
  niter: 2
  converge_bands: 'occupied'
Density mixing:
  Method: sum
  Backend: pulay
  Linear mixing parameter: 0.05
  old densities: 5
  Damping of long wavelength oscillations: 100
occupation numbers:
  Fermi-Dirac:
    width: 0.1000  # eV
  

poisson solver:
  ecut: 4800.0  # eV

xc functional:
  name: None

convergence criteria:
- Maximum [total energy] change in last 3 cyles: 0.0005 eV / valence electron
- Maximum integral of absolute [dens]ity change: 0.0001 electrons / valence electron
- Maximum integral of absolute [eigenst]ate change: 4e-08 eV^2 / valence electron
maximum number of iterations: 333

#      iter     time        total  log10-change:
#                          energy   eigst   dens
# iter:   1 09:58:27   -14.637425                  +4.6,+0.0,+0.0
# iter:   2 09:58:43   -15.137543   -0.07  -1.49   +4.1,-0.0,-0.0
# iter:   3 09:58:58   -15.137585   -0.70  -1.52   +4.0,-0.0,+0.0
# iter:   4 09:59:13   -15.156749   -1.02  -1.56   +4.1,-0.0,+0.0
# iter:   5 09:59:29   -15.255520   -1.31  -1.75   +4.3,-0.0,-0.0
# iter:   6 09:59:44   -15.156452   -1.57  -2.14   +4.4,-0.0,-0.0
# iter:   7 09:59:59   -15.149470   -1.68  -2.30   +4.3,+0.0,-0.0
# iter:   8 10:00:14   -15.141285   -2.11  -2.22   +4.3,+0.0,-0.0
# iter:   9 10:00:29   -15.142711c  -2.37  -2.95   +4.3,+0.0,-0.0
# iter:  10 10:00:45   -15.141907c  -2.58  -2.99   +4.3,+0.0,-0.0
# iter:  11 10:01:00   -15.141671c  -2.78  -3.06   +4.3,+0.0,-0.0
# iter:  12 10:01:15   -15.141729c  -2.97  -3.29   +4.3,+0.0,-0.0
# iter:  13 10:01:31   -15.141814c  -3.16  -3.48   +4.3,+0.0,-0.0
# iter:  14 10:01:46   -15.141838c  -3.34  -3.53   +4.3,+0.0,-0.0
# iter:  15 10:02:01   -15.141863c  -3.52  -3.56   +4.3,+0.0,-0.0
# iter:  16 10:02:16   -15.141853c  -3.70  -3.68   +4.3,+0.0,-0.0
# iter:  17 10:02:31   -15.141854c  -3.87  -3.73   +4.3,+0.0,-0.0
# iter:  18 10:02:46   -15.141849c  -4.02  -3.76   +4.3,+0.0,-0.0
# iter:  19 10:03:02   -15.141850c  -4.19  -4.23c  +4.3,+0.0,-0.0
# iter:  20 10:03:17   -15.141852c  -4.35  -4.99c  +4.3,+0.0,-0.0
# iter:  21 10:03:32   -15.141853c  -4.51  -5.02c  +4.3,+0.0,-0.0
# iter:  22 10:03:47   -15.141854c  -4.66  -4.95c  +4.3,+0.0,+0.0
# iter:  23 10:04:02   -15.141854c  -4.81  -4.86c  +4.3,+0.0,+0.0
# iter:  24 10:04:18   -15.141854c  -4.96  -4.87c  +4.3,+0.0,-0.0
# iter:  25 10:04:33   -15.141855c  -5.10  -4.94c  +4.3,+0.0,-0.0
# iter:  26 10:04:48   -15.141855c  -5.24  -4.90c  +4.3,+0.0,-0.0
# iter:  27 10:05:03   -15.141855c  -5.38  -4.86c  +4.3,+0.0,-0.0
# iter:  28 10:05:19   -15.141855c  -5.51  -4.87c  +4.3,+0.0,-0.0
# iter:  29 10:05:34   -15.141855c  -5.65  -4.90c  +4.3,+0.0,-0.0
# iter:  30 10:05:49   -15.141855c  -5.79  -5.02c  +4.3,+0.0,-0.0
# iter:  31 10:06:04   -15.141856c  -5.93  -5.03c  +4.3,+0.0,-0.0
# iter:  32 10:06:19   -15.141856c  -6.07  -5.07c  +4.3,+0.0,-0.0
# iter:  33 10:06:34   -15.141855c  -6.19  -5.09c  +4.3,+0.0,-0.0
# iter:  34 10:06:49   -15.141855c  -6.33  -5.19c  +4.3,+0.0,-0.0
# iter:  35 10:07:05   -15.141855c  -6.45  -5.29c  +4.3,+0.0,-0.0
# iter:  36 10:07:20   -15.141855c  -6.58  -5.35c  +4.3,+0.0,-0.0
# iter:  37 10:07:35   -15.141855c  -6.70  -5.33c  +4.3,+0.0,-0.0
# iter:  38 10:07:50   -15.141855c  -6.82  -5.52c  +4.3,+0.0,-0.0
# iter:  39 10:08:05   -15.141855c  -6.94  -5.53c  +4.3,+0.0,-0.0
# iter:  40 10:08:20   -15.141855c  -7.06  -5.73c  +4.3,+0.0,-0.0
# iter:  41 10:08:35   -15.141855c  -7.18  -5.77c  +4.3,+0.0,-0.0
# iter:  42 10:08:50   -15.141855c  -7.29  -5.83c  +4.3,+0.0,-0.0
# iter:  43 10:09:05   -15.141855c  -7.41c -5.93c  +4.3,+0.0,-0.0
scf_steps: 43
energies:  # eV
  coulomb:         -12.457021
  zero:              0.093414
  xc:              -17.137807
  external:          0.000000
  kinetic:          14.360019
  spinorbit:         0.000000
  entropy:          -0.000922
  total:           -15.142316
  extrapolated:    -15.141855

dipole moment: [-4.681440, -8.203257, -9.185168]  # |e|*Ang

total magnetic moment: [4.305413, 0.000491, -0.000000]

local magnetic moments: [
  [ 4.322357, -0.000006, -0.000000],  # Mn 0
  [-0.003845, -0.000002,  0.000000],  # I  1
  [ 0.002243, -0.003123,  0.000000]]  # I  2


Fermi level: -1.215 eV

kpt = [-0.455, -0.455, 0.000], weight = 0.008:
  Band      eig [eV]   occ [0-1]
     0       -82.167       1.000
   ...
    21        -4.280       1.000
    22        -4.048       1.000
    23        -3.732       1.000
    24        -3.679       1.000
    25        -3.575       1.000
    26        -3.543       1.000
    27        -2.242       1.000
    28        -2.191       1.000
    29        -0.315       0.000
    30        -0.190       0.000
    31        -0.148       0.000
    32         0.434       0.000
    33         0.465       0.000
    34         1.792       0.000
    35         2.562       0.000
    36         3.888       0.000
   ...
    41         5.232       0.000

kpt = [-0.455, -0.364, 0.000], weight = 0.008:
  Band      eig [eV]   occ [0-1]
     0       -82.167       1.000
   ...
    21        -4.043       1.000
    22        -3.987       1.000
    23        -3.758       1.000
    24        -3.648       1.000
    25        -3.528       1.000
    26        -3.398       1.000
    27        -2.282       1.000
    28        -2.077       1.000
    29        -0.316       0.000
    30        -0.257       0.000
    31        -0.164       0.000
    32         0.417       0.000
    33         0.518       0.000
    34         1.686       0.000
    35         2.421       0.000
    36         3.560       0.000
   ...
    41         4.768       0.000

kpt = [-0.455, -0.273, 0.000], weight = 0.008:
  Band      eig [eV]   occ [0-1]
     0       -82.167       1.000
   ...
    21        -3.930       1.000
    22        -3.722       1.000
    23        -3.681       1.000
    24        -3.550       1.000
    25        -3.443       1.000
    26        -3.268       1.000
    27        -2.251       1.000
    28        -1.951       0.999
    29        -0.449       0.000
    30        -0.261       0.000
    31        -0.162       0.000
    32         0.417       0.000
    33         0.547       0.000
    34         1.528       0.000
    35         2.226       0.000
    36         3.121       0.000
   ...
    41         4.627       0.000
(only showing first 3 out of 121 k-points)

Gap: 1.427 eV
Transition (v -> c):
  (s=0, k=40, n=28, [-0.18, 0.18, 0.00]) -> (s=0, k=42, n=29, [-0.18, 0.36, 0.00])
# Writing to Band/gsq-55.gpw (mode='')

---

timing:  # [seconds]
  Total: 663.532  # ━━━━━━━━━━━━━━━━━━━━━━━━━━━━━━━━━━━━━━━━━━━━━━━━━━━━━━━━━
  Init:   10.090  # ━
  SCF:   653.072  # ━━━━━━━━━━━━━━━━━━━━━━━━━━━━━━━━━━━━━━━━━━━━━━━━━━━━━━━━

Max RSS: 1620.156  # MiB
