#  __  _  _
# | _ |_)|_||  |
# |__||  | ||/\| - 24.1.0

User:   s194113@n-62-29-21
Date:   Sat Apr 27 03:32:15 2024
Arch:   x86_64
Pid:    5028
CWD:    /work3/s194113/10302/10302_NM/MnI2
Python: 3.8.5
gpaw:   /zhome/87/8/147075/venv-name/gpaw/gpaw (10808453a8)
_gpaw:  /zhome/87/8/147075/venv-name/gpaw/
        _gpaw.cpython-38-x86_64-linux-gnu.so (10808453a8)
ase:    /zhome/87/8/147075/venv-name/ase/ase (version 3.23.0b1-c36115a2db)
numpy:  /zhome/87/8/147075/venv-name/lib/python3.8/site-packages/numpy (version 1.24.4)
scipy:  /zhome/87/8/147075/venv-name/lib/python3.8/site-packages/scipy (version 1.10.1)
libxc:  4.3.4
units:  Angstrom and eV
cores: 12
OpenMP: False
OMP_NUM_THREADS: 1

---
input parameters:
  kpts: 
    density: 6.0
    gamma: True
  magmoms: [[4.4079912, 0, 0], [0.08032672, 0, 0], [0.08032672, 0, 0]]
  mixer: 
    backend: 'pulay'
    beta: 0.05
    method: 'sum'
    nmaxold: 5
    weight: 100
  mode: 
    name: 'pw'
    ecut: 600.0
    qspiral: array([0.26388889, 0.        , 0.        ])
  parallel: 
    kpt: None
    domain: 1
    band: 1
    order: 'kdb'
    stridebands: False
    augment_grids: False
    sl_auto: False
    sl_default: None
    sl_diagonalize: None
    sl_inverse_cholesky: None
    sl_lcao: None
    sl_lrtddft: None
    use_elpa: False
    elpasolver: '2stage'
    buffer_size: None
    gpu: False
  symmetry: 
    point_group: False
    time_reversal: False
  xc: 
    name: 'LDA'

#                        
#                        
#                        
#                        
#              I         
#                        
#                        
#        Mn              
#          I             
#                        
#                        
#                        
#                        
#                        

atoms: [  # symbols, positions [Ang] and initial magnetic moments
  [ Mn, [   0.000000,    0.000000,    7.649535], [ 4.408,  0.000,  0.000]], # 0
  [  I, [   2.082858,    1.202539,    9.299069], [ 0.080,  0.000,  0.000]], # 1
  [  I, [   0.000000,    2.405077,    6.000000], [ 0.080,  0.000,  0.000]]] # 2

cell: [  # Ang
#     x            y            z
  [   4.165716,    0.000000,    0.000000],
  [  -2.082858,    3.607616,    0.000000],
  [   0.000000,    0.000000,   15.299069]]

periodic: [True      , True      , False     ]
lengths:  [  4.165716,   4.165716,  15.299069]  # Ang
angles:   [ 90.000000,  90.000000, 120.000000]

symmetry:
  number of symmetries: 1
  rotations: [
    [[ 1,  0,  0], [ 0,  1,  0], [ 0,  0,  1]]]

bz sampling:
  number of bz points: 121
  number of ibz points: 121
  monkhorst-pack size: [11, 11, 1]
  monkhorst-pack shift: [0, 0, 0]
  points and weights: [
    [[ -0.45454545,  -0.45454545,   0.00000000], 0.00826446],  # 0
    [[ -0.45454545,  -0.36363636,   0.00000000], 0.00826446],  # 1
    [[ -0.45454545,  -0.27272727,   0.00000000], 0.00826446],  # 2
    [[ -0.45454545,  -0.18181818,   0.00000000], 0.00826446],  # 3
    [[ -0.45454545,  -0.09090909,   0.00000000], 0.00826446],  # 4
    [[ -0.45454545,   0.00000000,   0.00000000], 0.00826446],  # 5
    [[ -0.45454545,   0.09090909,   0.00000000], 0.00826446],  # 6
    [[ -0.45454545,   0.18181818,   0.00000000], 0.00826446],  # 7
    [[ -0.45454545,   0.27272727,   0.00000000], 0.00826446],  # 8
    [[ -0.45454545,   0.36363636,   0.00000000], 0.00826446],  # 9
    # ...
    [[  0.45454545,   0.45454545,   0.00000000], 0.00826446]]  # 120

plane wave coefficients: 7719
cutoff: 600.0 eV

spin-components: 4  # (non-collinear spins)
bands: 42
valence electrons: 29.0
spin-degeneracy: 1
dtype: complex128

memory:
    wave functions: 1_248_301_824  # bytes  (104_025_152 per core)

parallelization:
    kpt:    12
    domain: 1
    band:   1

density:
  components: 4
  grid points: [24 24 90]
  charge: 0.0  # |e|

potential:
  grid points: [24 24 90]

species:
  Mn:
    name: Manganese
    id: 0d715a8018be061a6e9ea6f2d364ac92
    Z: 25.0
    valence: 15
    core: 10
    charge: 0.0
    file: /zhome/86/d/1666/PAW/gpaw-setups-0.9.20000/Mn.LDA.gz
    compensation charges: {type: gauss,
                           rc: 0.38,
                           lmax: 2}
    cutoffs: {filter: 2.14,
              core: 0.86}
    valence states:
      #              energy  rcut
      - 3s(2.00)   -85.387   1.275
      - 4s(2.00)    -5.282   1.275
      - 3p(6.00)   -54.493   1.281
      - 4p(0.00)    -1.471   1.281
      - 3d(5.00)    -7.009   1.138
      -  d          20.203   1.138
  
    # Using partial waves for Mn as LCAO basis

  I:
    name: Iodine
    id: b559721c0c096a7b4c8fc0e0f4de5cf4
    Z: 53.0
    valence: 7
    core: 46
    charge: 0.0
    file: /zhome/86/d/1666/PAW/gpaw-setups-0.9.20000/I.LDA.gz
    compensation charges: {type: gauss,
                           rc: 0.37,
                           lmax: 2}
    cutoffs: {filter: 2.06,
              core: 2.90}
    valence states:
      #              energy  rcut
      - 5s(2.00)   -17.626   1.164
      - 5p(5.00)    -7.241   1.164
      -  s           9.585   1.164
      -  p          19.970   1.164
      -  d           0.000   1.164
  
    # Using partial waves for I as LCAO basis

Reference energy: -418222.442431  # eV

eigensolver:
  name: 'Davidson'
  niter: 2
  converge_bands: 'occupied'
Density mixing:
  Method: sum
  Backend: pulay
  Linear mixing parameter: 0.05
  old densities: 5
  Damping of long wavelength oscillations: 100
occupation numbers:
  Fermi-Dirac:
    width: 0.1000  # eV
  

poisson solver:
  ecut: 4800.0  # eV

xc functional:
  name: None

convergence criteria:
- Maximum [total energy] change in last 3 cyles: 0.0005 eV / valence electron
- Maximum integral of absolute [dens]ity change: 0.0001 electrons / valence electron
- Maximum integral of absolute [eigenst]ate change: 4e-08 eV^2 / valence electron
maximum number of iterations: 333

#      iter     time        total  log10-change:
#                          energy   eigst   dens
# iter:   1 03:32:40   -15.127653                  +4.6,+0.0,+0.0
# iter:   2 03:32:55   -15.190163   -0.54  -1.49   +4.5,-0.0,+0.0
# iter:   3 03:33:10   -15.133886   -1.06  -1.52   +4.5,-0.0,+0.0
# iter:   4 03:33:26   -15.140379   -1.30  -1.57   +4.6,+0.0,+0.0
# iter:   5 03:33:41   -15.196612   -1.60  -1.78   +4.7,+0.0,+0.0
# iter:   6 03:33:56   -15.219277   -1.94  -2.24   +4.8,+0.0,+0.0
# iter:   7 03:34:12   -15.146665   -1.98  -2.18   +4.8,+0.0,+0.0
# iter:   8 03:34:27   -15.134931   -2.23  -2.37   +4.8,+0.0,-0.0
# iter:   9 03:34:42   -15.143373c  -2.61  -2.63   +4.7,+0.0,-0.0
# iter:  10 03:34:57   -15.138728c  -2.99  -2.63   +4.8,+0.0,+0.0
# iter:  11 03:35:13   -15.135681c  -3.09  -2.70   +4.7,+0.0,-0.0
# iter:  12 03:35:28   -15.135428c  -3.27  -3.06   +4.7,+0.0,+0.0
# iter:  13 03:35:43   -15.135394c  -3.64  -3.47   +4.7,+0.0,+0.0
# iter:  14 03:35:58   -15.135911c  -3.68  -3.57   +4.7,+0.0,-0.0
# iter:  15 03:36:13   -15.135458c  -3.72  -3.31   +4.7,+0.0,-0.0
# iter:  16 03:36:28   -15.135430c  -4.19  -3.70   +4.7,+0.0,-0.0
# iter:  17 03:36:43   -15.135438c  -4.38  -4.23c  +4.7,+0.0,-0.0
# iter:  18 03:36:59   -15.135433c  -4.55  -4.21c  +4.7,+0.0,-0.0
# iter:  19 03:37:14   -15.135433c  -4.72  -4.38c  +4.7,+0.0,-0.0
# iter:  20 03:37:29   -15.135433c  -4.88  -4.47c  +4.7,+0.0,-0.0
# iter:  21 03:37:44   -15.135433c  -5.04  -4.58c  +4.7,+0.0,-0.0
# iter:  22 03:37:59   -15.135433c  -5.20  -4.66c  +4.7,+0.0,-0.0
# iter:  23 03:38:14   -15.135432c  -5.35  -4.76c  +4.7,+0.0,-0.0
# iter:  24 03:38:29   -15.135433c  -5.51  -4.72c  +4.7,+0.0,-0.0
# iter:  25 03:38:44   -15.135433c  -5.67  -4.76c  +4.7,+0.0,-0.0
# iter:  26 03:38:59   -15.135434c  -5.82  -4.86c  +4.7,+0.0,-0.0
# iter:  27 03:39:14   -15.135434c  -5.97  -4.99c  +4.7,+0.0,-0.0
# iter:  28 03:39:30   -15.135435c  -6.10  -5.03c  +4.7,+0.0,-0.0
# iter:  29 03:39:45   -15.135434c  -6.26  -5.18c  +4.7,+0.0,-0.0
# iter:  30 03:40:00   -15.135434c  -6.41  -5.30c  +4.7,+0.0,-0.0
# iter:  31 03:40:15   -15.135434c  -6.55  -5.34c  +4.7,+0.0,-0.0
# iter:  32 03:40:30   -15.135434c  -6.70  -5.75c  +4.7,+0.0,-0.0
# iter:  33 03:40:45   -15.135434c  -6.83  -5.94c  +4.7,+0.0,-0.0
# iter:  34 03:41:00   -15.135434c  -6.98  -5.97c  +4.7,+0.0,-0.0
# iter:  35 03:41:16   -15.135434c  -7.12  -6.02c  +4.7,+0.0,-0.0
# iter:  36 03:41:31   -15.135434c  -7.26  -6.04c  +4.7,+0.0,-0.0
# iter:  37 03:41:46   -15.135434c  -7.40c -6.13c  +4.7,+0.0,-0.0
scf_steps: 37
energies:  # eV
  coulomb:         -12.660268
  zero:              0.092725
  xc:              -17.180632
  external:          0.000000
  kinetic:          14.613396
  spinorbit:         0.000000
  entropy:          -0.001310
  total:           -15.136089
  extrapolated:    -15.135434

dipole moment: [-5.226501, -9.381336, -12.553475]  # |e|*Ang

total magnetic moment: [4.744090, 0.011725, -0.000000]

local magnetic moments: [
  [ 4.338968, -0.000343, -0.000000],  # Mn 0
  [ 0.021026, -0.051130, -0.000000],  # I  1
  [ 0.049099, -0.025410, -0.000000]]  # I  2


Fermi level: -1.248 eV

kpt = [-0.455, -0.455, 0.000], weight = 0.008:
  Band      eig [eV]   occ [0-1]
     0       -82.189       1.000
   ...
    21        -3.974       1.000
    22        -3.908       1.000
    23        -3.816       1.000
    24        -3.742       1.000
    25        -3.527       1.000
    26        -3.506       1.000
    27        -2.150       1.000
    28        -2.031       1.000
    29        -0.562       0.001
    30        -0.171       0.000
    31        -0.148       0.000
    32         0.466       0.000
    33         0.618       0.000
    34         1.347       0.000
    35         2.320       0.000
    36         3.017       0.000
   ...
    41         5.105       0.000

kpt = [-0.455, -0.364, 0.000], weight = 0.008:
  Band      eig [eV]   occ [0-1]
     0       -82.189       1.000
   ...
    21        -3.997       1.000
    22        -3.863       1.000
    23        -3.808       1.000
    24        -3.665       1.000
    25        -3.500       1.000
    26        -3.452       1.000
    27        -2.207       1.000
    28        -2.073       1.000
    29        -0.480       0.000
    30        -0.180       0.000
    31        -0.148       0.000
    32         0.476       0.000
    33         0.514       0.000
    34         1.490       0.000
    35         2.376       0.000
    36         3.121       0.000
   ...
    41         5.077       0.000

kpt = [-0.455, -0.273, 0.000], weight = 0.008:
  Band      eig [eV]   occ [0-1]
     0       -82.189       1.000
   ...
    21        -4.057       1.000
    22        -3.858       1.000
    23        -3.820       1.000
    24        -3.641       1.000
    25        -3.486       1.000
    26        -3.360       1.000
    27        -2.316       1.000
    28        -2.104       1.000
    29        -0.346       0.000
    30        -0.225       0.000
    31        -0.158       0.000
    32         0.366       0.000
    33         0.513       0.000
    34         1.809       0.000
    35         2.540       0.000
    36         3.589       0.000
   ...
    41         5.188       0.000
(only showing first 3 out of 121 k-points)

Gap: 0.989 eV
Transition (v -> c):
  (s=0, k=60, n=28, [0.00, 0.00, 0.00]) -> (s=0, k=115, n=29, [0.45, 0.00, 0.00])
# Writing to Band/gsq-19.gpw (mode='')

