#  __  _  _
# | _ |_)|_||  |
# |__||  | ||/\| - 24.1.0

User:   s194113@n-62-29-21
Date:   Sat Apr 27 02:04:45 2024
Arch:   x86_64
Pid:    5028
CWD:    /work3/s194113/10302/10302_NM/MnI2
Python: 3.8.5
gpaw:   /zhome/87/8/147075/venv-name/gpaw/gpaw (10808453a8)
_gpaw:  /zhome/87/8/147075/venv-name/gpaw/
        _gpaw.cpython-38-x86_64-linux-gnu.so (10808453a8)
ase:    /zhome/87/8/147075/venv-name/ase/ase (version 3.23.0b1-c36115a2db)
numpy:  /zhome/87/8/147075/venv-name/lib/python3.8/site-packages/numpy (version 1.24.4)
scipy:  /zhome/87/8/147075/venv-name/lib/python3.8/site-packages/scipy (version 1.10.1)
libxc:  4.3.4
units:  Angstrom and eV
cores: 12
OpenMP: False
OMP_NUM_THREADS: 1

---
input parameters:
  kpts: 
    density: 6.0
    gamma: True
  magmoms: [[4.4079912, 0, 0], [0.08032672, 0, 0], [0.08032672, 0, 0]]
  mixer: 
    backend: 'pulay'
    beta: 0.05
    method: 'sum'
    nmaxold: 5
    weight: 100
  mode: 
    name: 'pw'
    ecut: 600.0
    qspiral: array([0.13888889, 0.        , 0.        ])
  parallel: 
    kpt: None
    domain: 1
    band: 1
    order: 'kdb'
    stridebands: False
    augment_grids: False
    sl_auto: False
    sl_default: None
    sl_diagonalize: None
    sl_inverse_cholesky: None
    sl_lcao: None
    sl_lrtddft: None
    use_elpa: False
    elpasolver: '2stage'
    buffer_size: None
    gpu: False
  symmetry: 
    point_group: False
    time_reversal: False
  xc: 
    name: 'LDA'

#                        
#                        
#                        
#                        
#              I         
#                        
#                        
#        Mn              
#          I             
#                        
#                        
#                        
#                        
#                        

atoms: [  # symbols, positions [Ang] and initial magnetic moments
  [ Mn, [   0.000000,    0.000000,    7.649535], [ 4.408,  0.000,  0.000]], # 0
  [  I, [   2.082858,    1.202539,    9.299069], [ 0.080,  0.000,  0.000]], # 1
  [  I, [   0.000000,    2.405077,    6.000000], [ 0.080,  0.000,  0.000]]] # 2

cell: [  # Ang
#     x            y            z
  [   4.165716,    0.000000,    0.000000],
  [  -2.082858,    3.607616,    0.000000],
  [   0.000000,    0.000000,   15.299069]]

periodic: [True      , True      , False     ]
lengths:  [  4.165716,   4.165716,  15.299069]  # Ang
angles:   [ 90.000000,  90.000000, 120.000000]

symmetry:
  number of symmetries: 1
  rotations: [
    [[ 1,  0,  0], [ 0,  1,  0], [ 0,  0,  1]]]

bz sampling:
  number of bz points: 121
  number of ibz points: 121
  monkhorst-pack size: [11, 11, 1]
  monkhorst-pack shift: [0, 0, 0]
  points and weights: [
    [[ -0.45454545,  -0.45454545,   0.00000000], 0.00826446],  # 0
    [[ -0.45454545,  -0.36363636,   0.00000000], 0.00826446],  # 1
    [[ -0.45454545,  -0.27272727,   0.00000000], 0.00826446],  # 2
    [[ -0.45454545,  -0.18181818,   0.00000000], 0.00826446],  # 3
    [[ -0.45454545,  -0.09090909,   0.00000000], 0.00826446],  # 4
    [[ -0.45454545,   0.00000000,   0.00000000], 0.00826446],  # 5
    [[ -0.45454545,   0.09090909,   0.00000000], 0.00826446],  # 6
    [[ -0.45454545,   0.18181818,   0.00000000], 0.00826446],  # 7
    [[ -0.45454545,   0.27272727,   0.00000000], 0.00826446],  # 8
    [[ -0.45454545,   0.36363636,   0.00000000], 0.00826446],  # 9
    # ...
    [[  0.45454545,   0.45454545,   0.00000000], 0.00826446]]  # 120

plane wave coefficients: 7719
cutoff: 600.0 eV

spin-components: 4  # (non-collinear spins)
bands: 42
valence electrons: 29.0
spin-degeneracy: 1
dtype: complex128

memory:
    wave functions: 1_248_301_824  # bytes  (104_025_152 per core)

parallelization:
    kpt:    12
    domain: 1
    band:   1

density:
  components: 4
  grid points: [24 24 90]
  charge: 0.0  # |e|

potential:
  grid points: [24 24 90]

species:
  Mn:
    name: Manganese
    id: 0d715a8018be061a6e9ea6f2d364ac92
    Z: 25.0
    valence: 15
    core: 10
    charge: 0.0
    file: /zhome/86/d/1666/PAW/gpaw-setups-0.9.20000/Mn.LDA.gz
    compensation charges: {type: gauss,
                           rc: 0.38,
                           lmax: 2}
    cutoffs: {filter: 2.14,
              core: 0.86}
    valence states:
      #              energy  rcut
      - 3s(2.00)   -85.387   1.275
      - 4s(2.00)    -5.282   1.275
      - 3p(6.00)   -54.493   1.281
      - 4p(0.00)    -1.471   1.281
      - 3d(5.00)    -7.009   1.138
      -  d          20.203   1.138
  
    # Using partial waves for Mn as LCAO basis

  I:
    name: Iodine
    id: b559721c0c096a7b4c8fc0e0f4de5cf4
    Z: 53.0
    valence: 7
    core: 46
    charge: 0.0
    file: /zhome/86/d/1666/PAW/gpaw-setups-0.9.20000/I.LDA.gz
    compensation charges: {type: gauss,
                           rc: 0.37,
                           lmax: 2}
    cutoffs: {filter: 2.06,
              core: 2.90}
    valence states:
      #              energy  rcut
      - 5s(2.00)   -17.626   1.164
      - 5p(5.00)    -7.241   1.164
      -  s           9.585   1.164
      -  p          19.970   1.164
      -  d           0.000   1.164
  
    # Using partial waves for I as LCAO basis

Reference energy: -418222.442431  # eV

eigensolver:
  name: 'Davidson'
  niter: 2
  converge_bands: 'occupied'
Density mixing:
  Method: sum
  Backend: pulay
  Linear mixing parameter: 0.05
  old densities: 5
  Damping of long wavelength oscillations: 100
occupation numbers:
  Fermi-Dirac:
    width: 0.1000  # eV
  

poisson solver:
  ecut: 4800.0  # eV

xc functional:
  name: None

convergence criteria:
- Maximum [total energy] change in last 3 cyles: 0.0005 eV / valence electron
- Maximum integral of absolute [dens]ity change: 0.0001 electrons / valence electron
- Maximum integral of absolute [eigenst]ate change: 4e-08 eV^2 / valence electron
maximum number of iterations: 333

#      iter     time        total  log10-change:
#                          energy   eigst   dens
# iter:   1 02:05:10   -15.193185                  +4.6,+0.0,+0.0
# iter:   2 02:05:25   -15.187524   -0.72  -1.49   +4.7,-0.0,+0.0
# iter:   3 02:05:40   -15.116092   -1.16  -1.51   +4.7,+0.0,+0.0
# iter:   4 02:05:56   -15.123448   -1.46  -1.59   +4.8,+0.0,+0.0
# iter:   5 02:06:11   -15.166535   -1.72  -1.79   +4.9,+0.0,+0.0
# iter:   6 02:06:26   -15.128658   -1.88  -2.28   +4.9,+0.0,+0.0
# iter:   7 02:06:41   -15.129834   -2.25  -2.31   +4.9,+0.0,+0.0
# iter:   8 02:06:57   -15.154615   -2.37  -2.72   +4.9,+0.0,+0.0
# iter:   9 02:07:12   -15.133933   -2.75  -2.34   +4.9,+0.0,+0.0
# iter:  10 02:07:27   -15.126813   -2.70  -2.64   +4.9,+0.0,+0.0
# iter:  11 02:07:42   -15.127230c  -3.31  -3.47   +4.9,+0.0,+0.0
# iter:  12 02:07:58   -15.127839c  -3.41  -3.48   +4.9,+0.0,+0.0
# iter:  13 02:08:13   -15.127682c  -3.77  -3.15   +4.9,+0.0,+0.0
# iter:  14 02:08:28   -15.127731c  -3.95  -3.18   +4.9,+0.0,+0.0
# iter:  15 02:08:43   -15.127694c  -4.12  -3.16   +4.9,+0.0,+0.0
# iter:  16 02:08:59   -15.127237c  -4.07  -3.18   +4.9,+0.0,-0.0
# iter:  17 02:09:14   -15.127334c  -4.42  -3.47   +4.9,+0.0,-0.0
# iter:  18 02:09:29   -15.127236c  -4.37  -3.38   +4.9,+0.0,+0.0
# iter:  19 02:09:44   -15.127250c  -4.72  -3.69   +4.9,+0.0,+0.0
# iter:  20 02:09:59   -15.127250c  -4.90  -3.79   +4.9,+0.0,+0.0
# iter:  21 02:10:15   -15.127257c  -5.01  -3.82   +4.9,+0.0,+0.0
# iter:  22 02:10:30   -15.127258c  -5.14  -3.86   +4.9,+0.0,+0.0
# iter:  23 02:10:45   -15.127263c  -5.26  -3.81   +4.9,+0.0,+0.0
# iter:  24 02:11:00   -15.127256c  -5.50  -4.01c  +4.9,+0.0,+0.0
# iter:  25 02:11:15   -15.127280c  -5.48  -3.96   +4.9,+0.0,-0.0
# iter:  26 02:11:30   -15.127273c  -5.74  -4.05c  +4.9,+0.0,+0.0
# iter:  27 02:11:46   -15.127273c  -5.91  -4.17c  +4.9,+0.0,+0.0
# iter:  28 02:12:01   -15.127271c  -6.08  -4.22c  +4.9,+0.0,+0.0
# iter:  29 02:12:16   -15.127271c  -6.23  -4.25c  +4.9,+0.0,+0.0
# iter:  30 02:12:31   -15.127269c  -6.38  -4.32c  +4.9,+0.0,+0.0
# iter:  31 02:12:46   -15.127267c  -6.55  -4.38c  +4.9,+0.0,+0.0
# iter:  32 02:13:01   -15.127267c  -6.76  -4.43c  +4.9,+0.0,+0.0
# iter:  33 02:13:17   -15.127266c  -6.92  -4.47c  +4.9,+0.0,-0.0
# iter:  34 02:13:32   -15.127266c  -7.06  -4.52c  +4.9,+0.0,+0.0
# iter:  35 02:13:47   -15.127266c  -7.22  -4.62c  +4.9,+0.0,-0.0
# iter:  36 02:14:02   -15.127266c  -7.23  -4.64c  +4.9,+0.0,+0.0
# iter:  37 02:14:18   -15.127266c  -7.44c -5.07c  +4.9,+0.0,-0.0
scf_steps: 37
energies:  # eV
  coulomb:         -12.903740
  zero:              0.091796
  xc:              -17.225587
  external:          0.000000
  kinetic:          14.911174
  spinorbit:         0.000000
  entropy:          -0.001818
  total:           -15.128175
  extrapolated:    -15.127266

dipole moment: [-5.538545, -9.749810, -13.915063]  # |e|*Ang

total magnetic moment: [4.912814, 0.009629, -0.000000]

local magnetic moments: [
  [ 4.353207, -0.000301,  0.000000],  # Mn 0
  [ 0.062871, -0.042204, -0.000000],  # I  1
  [ 0.072740, -0.021043, -0.000000]]  # I  2


Fermi level: -1.258 eV

kpt = [-0.455, -0.455, 0.000], weight = 0.008:
  Band      eig [eV]   occ [0-1]
     0       -82.210       1.000
   ...
    21        -3.924       1.000
    22        -3.890       1.000
    23        -3.777       1.000
    24        -3.743       1.000
    25        -3.655       1.000
    26        -3.582       1.000
    27        -2.077       1.000
    28        -2.024       1.000
    29        -0.643       0.002
    30        -0.160       0.000
    31        -0.153       0.000
    32         0.510       0.000
    33         0.651       0.000
    34         1.201       0.000
    35         2.137       0.000
    36         2.916       0.000
   ...
    41         4.712       0.000

kpt = [-0.455, -0.364, 0.000], weight = 0.008:
  Band      eig [eV]   occ [0-1]
     0       -82.210       1.000
   ...
    21        -4.053       1.000
    22        -3.926       1.000
    23        -3.844       1.000
    24        -3.712       1.000
    25        -3.575       1.000
    26        -3.521       1.000
    27        -2.226       1.000
    28        -2.106       1.000
    29        -0.474       0.000
    30        -0.172       0.000
    31        -0.155       0.000
    32         0.416       0.000
    33         0.583       0.000
    34         1.523       0.000
    35         2.404       0.000
    36         3.394       0.000
   ...
    41         4.934       0.000

kpt = [-0.455, -0.273, 0.000], weight = 0.008:
  Band      eig [eV]   occ [0-1]
     0       -82.210       1.000
   ...
    21        -4.104       1.000
    22        -3.976       1.000
    23        -3.818       1.000
    24        -3.741       1.000
    25        -3.528       1.000
    26        -3.460       1.000
    27        -2.369       1.000
    28        -2.116       1.000
    29        -0.348       0.000
    30        -0.208       0.000
    31        -0.158       0.000
    32         0.349       0.000
    33         0.553       0.000
    34         1.792       0.000
    35         2.618       0.000
    36         3.645       0.000
   ...
    41         5.101       0.000
(only showing first 3 out of 121 k-points)

Gap: 0.925 eV
Transition (v -> c):
  (s=0, k=60, n=28, [0.00, 0.00, 0.00]) -> (s=0, k=115, n=29, [0.45, 0.00, 0.00])
# Writing to Band/gsq-10.gpw (mode='')

---

timing:  # [seconds]
  Total: 573.450  # ━━━━━━━━━━━━━━━━━━━━━━━━━━━━━━━━━━━━━━━━━━━━━━━━━━━━━━━━━
  Init:   10.105  # ━
  SCF:   562.956  # ━━━━━━━━━━━━━━━━━━━━━━━━━━━━━━━━━━━━━━━━━━━━━━━━━━━━━━━━

Max RSS: 785.559  # MiB
