#  __  _  _
# | _ |_)|_||  |
# |__||  | ||/\| - 24.1.0

User:   s194113@n-62-29-21
Date:   Sat Apr 27 09:03:06 2024
Arch:   x86_64
Pid:    5028
CWD:    /work3/s194113/10302/10302_NM/MnI2
Python: 3.8.5
gpaw:   /zhome/87/8/147075/venv-name/gpaw/gpaw (10808453a8)
_gpaw:  /zhome/87/8/147075/venv-name/gpaw/
        _gpaw.cpython-38-x86_64-linux-gnu.so (10808453a8)
ase:    /zhome/87/8/147075/venv-name/ase/ase (version 3.23.0b1-c36115a2db)
numpy:  /zhome/87/8/147075/venv-name/lib/python3.8/site-packages/numpy (version 1.24.4)
scipy:  /zhome/87/8/147075/venv-name/lib/python3.8/site-packages/scipy (version 1.10.1)
libxc:  4.3.4
units:  Angstrom and eV
cores: 12
OpenMP: False
OMP_NUM_THREADS: 1

---
input parameters:
  kpts: 
    density: 6.0
    gamma: True
  magmoms: [[4.4079912, 0, 0], [0.08032672, 0, 0], [0.08032672, 0, 0]]
  mixer: 
    backend: 'pulay'
    beta: 0.05
    method: 'sum'
    nmaxold: 5
    weight: 100
  mode: 
    name: 'pw'
    ecut: 600.0
    qspiral: array([0.38888889, 0.22222222, 0.        ])
  parallel: 
    kpt: None
    domain: 1
    band: 1
    order: 'kdb'
    stridebands: False
    augment_grids: False
    sl_auto: False
    sl_default: None
    sl_diagonalize: None
    sl_inverse_cholesky: None
    sl_lcao: None
    sl_lrtddft: None
    use_elpa: False
    elpasolver: '2stage'
    buffer_size: None
    gpu: False
  symmetry: 
    point_group: False
    time_reversal: False
  xc: 
    name: 'LDA'

#                        
#                        
#                        
#                        
#              I         
#                        
#                        
#        Mn              
#          I             
#                        
#                        
#                        
#                        
#                        

atoms: [  # symbols, positions [Ang] and initial magnetic moments
  [ Mn, [   0.000000,    0.000000,    7.649535], [ 4.408,  0.000,  0.000]], # 0
  [  I, [   2.082858,    1.202539,    9.299069], [ 0.080,  0.000,  0.000]], # 1
  [  I, [   0.000000,    2.405077,    6.000000], [ 0.080,  0.000,  0.000]]] # 2

cell: [  # Ang
#     x            y            z
  [   4.165716,    0.000000,    0.000000],
  [  -2.082858,    3.607616,    0.000000],
  [   0.000000,    0.000000,   15.299069]]

periodic: [True      , True      , False     ]
lengths:  [  4.165716,   4.165716,  15.299069]  # Ang
angles:   [ 90.000000,  90.000000, 120.000000]

symmetry:
  number of symmetries: 1
  rotations: [
    [[ 1,  0,  0], [ 0,  1,  0], [ 0,  0,  1]]]

bz sampling:
  number of bz points: 121
  number of ibz points: 121
  monkhorst-pack size: [11, 11, 1]
  monkhorst-pack shift: [0, 0, 0]
  points and weights: [
    [[ -0.45454545,  -0.45454545,   0.00000000], 0.00826446],  # 0
    [[ -0.45454545,  -0.36363636,   0.00000000], 0.00826446],  # 1
    [[ -0.45454545,  -0.27272727,   0.00000000], 0.00826446],  # 2
    [[ -0.45454545,  -0.18181818,   0.00000000], 0.00826446],  # 3
    [[ -0.45454545,  -0.09090909,   0.00000000], 0.00826446],  # 4
    [[ -0.45454545,   0.00000000,   0.00000000], 0.00826446],  # 5
    [[ -0.45454545,   0.09090909,   0.00000000], 0.00826446],  # 6
    [[ -0.45454545,   0.18181818,   0.00000000], 0.00826446],  # 7
    [[ -0.45454545,   0.27272727,   0.00000000], 0.00826446],  # 8
    [[ -0.45454545,   0.36363636,   0.00000000], 0.00826446],  # 9
    # ...
    [[  0.45454545,   0.45454545,   0.00000000], 0.00826446]]  # 120

plane wave coefficients: 7719
cutoff: 600.0 eV

spin-components: 4  # (non-collinear spins)
bands: 42
valence electrons: 29.0
spin-degeneracy: 1
dtype: complex128

memory:
    wave functions: 1_248_301_824  # bytes  (104_025_152 per core)

parallelization:
    kpt:    12
    domain: 1
    band:   1

density:
  components: 4
  grid points: [24 24 90]
  charge: 0.0  # |e|

potential:
  grid points: [24 24 90]

species:
  Mn:
    name: Manganese
    id: 0d715a8018be061a6e9ea6f2d364ac92
    Z: 25.0
    valence: 15
    core: 10
    charge: 0.0
    file: /zhome/86/d/1666/PAW/gpaw-setups-0.9.20000/Mn.LDA.gz
    compensation charges: {type: gauss,
                           rc: 0.38,
                           lmax: 2}
    cutoffs: {filter: 2.14,
              core: 0.86}
    valence states:
      #              energy  rcut
      - 3s(2.00)   -85.387   1.275
      - 4s(2.00)    -5.282   1.275
      - 3p(6.00)   -54.493   1.281
      - 4p(0.00)    -1.471   1.281
      - 3d(5.00)    -7.009   1.138
      -  d          20.203   1.138
  
    # Using partial waves for Mn as LCAO basis

  I:
    name: Iodine
    id: b559721c0c096a7b4c8fc0e0f4de5cf4
    Z: 53.0
    valence: 7
    core: 46
    charge: 0.0
    file: /zhome/86/d/1666/PAW/gpaw-setups-0.9.20000/I.LDA.gz
    compensation charges: {type: gauss,
                           rc: 0.37,
                           lmax: 2}
    cutoffs: {filter: 2.06,
              core: 2.90}
    valence states:
      #              energy  rcut
      - 5s(2.00)   -17.626   1.164
      - 5p(5.00)    -7.241   1.164
      -  s           9.585   1.164
      -  p          19.970   1.164
      -  d           0.000   1.164
  
    # Using partial waves for I as LCAO basis

Reference energy: -418222.442431  # eV

eigensolver:
  name: 'Davidson'
  niter: 2
  converge_bands: 'occupied'
Density mixing:
  Method: sum
  Backend: pulay
  Linear mixing parameter: 0.05
  old densities: 5
  Damping of long wavelength oscillations: 100
occupation numbers:
  Fermi-Dirac:
    width: 0.1000  # eV
  

poisson solver:
  ecut: 4800.0  # eV

xc functional:
  name: None

convergence criteria:
- Maximum [total energy] change in last 3 cyles: 0.0005 eV / valence electron
- Maximum integral of absolute [dens]ity change: 0.0001 electrons / valence electron
- Maximum integral of absolute [eigenst]ate change: 4e-08 eV^2 / valence electron
maximum number of iterations: 333

#      iter     time        total  log10-change:
#                          energy   eigst   dens
# iter:   1 09:03:31   -14.706301                  +4.6,+0.0,+0.0
# iter:   2 09:03:46   -15.145692   -0.11  -1.49   +4.1,-0.0,+0.0
# iter:   3 09:04:01   -15.138254   -0.74  -1.52   +4.1,-0.0,+0.0
# iter:   4 09:04:17   -15.155743   -1.04  -1.56   +4.2,-0.0,+0.0
# iter:   5 09:04:32   -15.249779   -1.34  -1.75   +4.4,-0.0,+0.0
# iter:   6 09:04:48   -15.158012   -1.61  -2.15   +4.4,+0.0,+0.0
# iter:   7 09:05:03   -15.155688   -1.64  -2.30   +4.4,+0.0,-0.0
# iter:   8 09:05:18   -15.140597   -2.14  -2.18   +4.3,+0.0,-0.0
# iter:   9 09:05:33   -15.140961   -2.43  -2.94   +4.3,+0.0,-0.0
# iter:  10 09:05:48   -15.142190c  -2.62  -3.06   +4.3,+0.0,-0.0
# iter:  11 09:06:04   -15.140915c  -2.80  -2.93   +4.3,+0.0,-0.0
# iter:  12 09:06:19   -15.141013c  -3.02  -3.39   +4.3,+0.0,-0.0
# iter:  13 09:06:34   -15.141051c  -3.22  -3.49   +4.3,+0.0,-0.0
# iter:  14 09:06:49   -15.141159c  -3.39  -3.53   +4.3,+0.0,-0.0
# iter:  15 09:07:05   -15.141087c  -3.57  -3.55   +4.3,+0.0,-0.0
# iter:  16 09:07:20   -15.141108c  -3.75  -3.65   +4.3,+0.0,-0.0
# iter:  17 09:07:35   -15.141130c  -3.92  -3.77   +4.3,+0.0,-0.0
# iter:  18 09:07:50   -15.141117c  -4.09  -3.98   +4.3,+0.0,-0.0
# iter:  19 09:08:06   -15.141115c  -4.26  -4.13c  +4.3,+0.0,-0.0
# iter:  20 09:08:21   -15.141119c  -4.42  -4.13c  +4.3,+0.0,-0.0
# iter:  21 09:08:36   -15.141116c  -4.58  -4.30c  +4.3,+0.0,-0.0
# iter:  22 09:08:51   -15.141116c  -4.73  -4.38c  +4.3,+0.0,-0.0
# iter:  23 09:09:07   -15.141122c  -4.86  -4.36c  +4.3,+0.0,-0.0
# iter:  24 09:09:22   -15.141117c  -5.03  -4.37c  +4.3,+0.0,-0.0
# iter:  25 09:09:37   -15.141116c  -5.17  -5.03c  +4.3,+0.0,-0.0
# iter:  26 09:09:52   -15.141117c  -5.31  -4.87c  +4.3,+0.0,-0.0
# iter:  27 09:10:08   -15.141117c  -5.45  -5.24c  +4.3,+0.0,-0.0
# iter:  28 09:10:23   -15.141117c  -5.59  -5.24c  +4.3,+0.0,-0.0
# iter:  29 09:10:38   -15.141117c  -5.72  -5.25c  +4.3,+0.0,-0.0
# iter:  30 09:10:53   -15.141117c  -5.86  -5.12c  +4.3,+0.0,-0.0
# iter:  31 09:11:08   -15.141117c  -5.99  -5.25c  +4.3,+0.0,-0.0
# iter:  32 09:11:24   -15.141117c  -6.14  -5.21c  +4.3,+0.0,+0.0
# iter:  33 09:11:39   -15.141117c  -6.27  -5.19c  +4.3,+0.0,+0.0
# iter:  34 09:11:54   -15.141117c  -6.41  -5.27c  +4.3,+0.0,+0.0
# iter:  35 09:12:09   -15.141117c  -6.53  -5.28c  +4.3,+0.0,-0.0
# iter:  36 09:12:24   -15.141117c  -6.67  -5.40c  +4.3,+0.0,+0.0
# iter:  37 09:12:40   -15.141117c  -6.79  -5.79c  +4.3,+0.0,-0.0
# iter:  38 09:12:55   -15.141117c  -6.91  -5.81c  +4.3,+0.0,-0.0
# iter:  39 09:13:10   -15.141117c  -7.03  -5.86c  +4.3,+0.0,+0.0
# iter:  40 09:13:25   -15.141117c  -7.15  -5.87c  +4.3,+0.0,+0.0
# iter:  41 09:13:40   -15.141117c  -7.28  -5.89c  +4.3,+0.0,+0.0
# iter:  42 09:13:56   -15.141117c  -7.40c -6.02c  +4.3,+0.0,+0.0
scf_steps: 42
energies:  # eV
  coulomb:         -12.473574
  zero:              0.093372
  xc:              -17.141103
  external:          0.000000
  kinetic:          14.380680
  spinorbit:         0.000000
  entropy:          -0.000982
  total:           -15.141609
  extrapolated:    -15.141117

dipole moment: [-4.639645, -8.352200, -9.374804]  # |e|*Ang

total magnetic moment: [4.341112, 0.001239, 0.000000]

local magnetic moments: [
  [ 4.323687, -0.000027,  0.000000],  # Mn 0
  [-0.012321, -0.000001,  0.000000],  # I  1
  [ 0.009438, -0.007921, -0.000000]]  # I  2


Fermi level: -1.214 eV

kpt = [-0.455, -0.455, 0.000], weight = 0.008:
  Band      eig [eV]   occ [0-1]
     0       -82.169       1.000
   ...
    21        -4.234       1.000
    22        -4.026       1.000
    23        -3.768       1.000
    24        -3.682       1.000
    25        -3.561       1.000
    26        -3.526       1.000
    27        -2.263       1.000
    28        -2.154       1.000
    29        -0.324       0.000
    30        -0.204       0.000
    31        -0.144       0.000
    32         0.412       0.000
    33         0.502       0.000
    34         1.764       0.000
    35         2.530       0.000
    36         3.872       0.000
   ...
    41         5.086       0.000

kpt = [-0.455, -0.364, 0.000], weight = 0.008:
  Band      eig [eV]   occ [0-1]
     0       -82.169       1.000
   ...
    21        -4.077       1.000
    22        -3.911       1.000
    23        -3.778       1.000
    24        -3.636       1.000
    25        -3.507       1.000
    26        -3.395       1.000
    27        -2.300       1.000
    28        -2.053       1.000
    29        -0.338       0.000
    30        -0.244       0.000
    31        -0.163       0.000
    32         0.404       0.000
    33         0.531       0.000
    34         1.673       0.000
    35         2.442       0.000
    36         3.466       0.000
   ...
    41         4.942       0.000

kpt = [-0.455, -0.273, 0.000], weight = 0.008:
  Band      eig [eV]   occ [0-1]
     0       -82.169       1.000
   ...
    21        -3.937       1.000
    22        -3.671       1.000
    23        -3.652       1.000
    24        -3.551       1.000
    25        -3.439       1.000
    26        -3.256       1.000
    27        -2.309       1.000
    28        -1.935       0.999
    29        -0.436       0.000
    30        -0.237       0.000
    31        -0.178       0.000
    32         0.378       0.000
    33         0.553       0.000
    34         1.589       0.000
    35         2.354       0.000
    36         3.110       0.000
   ...
    41         4.753       0.000
(only showing first 3 out of 121 k-points)

Gap: 1.355 eV
Transition (v -> c):
  (s=0, k=93, n=28, [0.27, 0.00, 0.00]) -> (s=0, k=92, n=29, [0.27, -0.09, 0.00])
# Writing to Band/gsq-50.gpw (mode='')

---

timing:  # [seconds]
  Total: 650.279  # ━━━━━━━━━━━━━━━━━━━━━━━━━━━━━━━━━━━━━━━━━━━━━━━━━━━━━━━━━
  Init:   10.214  # ━
  SCF:   639.637  # ━━━━━━━━━━━━━━━━━━━━━━━━━━━━━━━━━━━━━━━━━━━━━━━━━━━━━━━━

Max RSS: 1511.551  # MiB
