#  __  _  _
# | _ |_)|_||  |
# |__||  | ||/\| - 24.1.0

User:   s194113@n-62-29-21
Date:   Sat Apr 27 11:16:03 2024
Arch:   x86_64
Pid:    5028
CWD:    /work3/s194113/10302/10302_NM/MnI2
Python: 3.8.5
gpaw:   /zhome/87/8/147075/venv-name/gpaw/gpaw (10808453a8)
_gpaw:  /zhome/87/8/147075/venv-name/gpaw/
        _gpaw.cpython-38-x86_64-linux-gnu.so (10808453a8)
ase:    /zhome/87/8/147075/venv-name/ase/ase (version 3.23.0b1-c36115a2db)
numpy:  /zhome/87/8/147075/venv-name/lib/python3.8/site-packages/numpy (version 1.24.4)
scipy:  /zhome/87/8/147075/venv-name/lib/python3.8/site-packages/scipy (version 1.10.1)
libxc:  4.3.4
units:  Angstrom and eV
cores: 12
OpenMP: False
OMP_NUM_THREADS: 1

---
input parameters:
  kpts: 
    density: 6.0
    gamma: True
  magmoms: [[4.4079912, 0, 0], [0.08032672, 0, 0], [0.08032672, 0, 0]]
  mixer: 
    backend: 'pulay'
    beta: 0.05
    method: 'sum'
    nmaxold: 5
    weight: 100
  mode: 
    name: 'pw'
    ecut: 600.0
    qspiral: array([0.29457364, 0.29457364, 0.        ])
  parallel: 
    kpt: None
    domain: 1
    band: 1
    order: 'kdb'
    stridebands: False
    augment_grids: False
    sl_auto: False
    sl_default: None
    sl_diagonalize: None
    sl_inverse_cholesky: None
    sl_lcao: None
    sl_lrtddft: None
    use_elpa: False
    elpasolver: '2stage'
    buffer_size: None
    gpu: False
  symmetry: 
    point_group: False
    time_reversal: False
  xc: 
    name: 'LDA'

#                        
#                        
#                        
#                        
#              I         
#                        
#                        
#        Mn              
#          I             
#                        
#                        
#                        
#                        
#                        

atoms: [  # symbols, positions [Ang] and initial magnetic moments
  [ Mn, [   0.000000,    0.000000,    7.649535], [ 4.408,  0.000,  0.000]], # 0
  [  I, [   2.082858,    1.202539,    9.299069], [ 0.080,  0.000,  0.000]], # 1
  [  I, [   0.000000,    2.405077,    6.000000], [ 0.080,  0.000,  0.000]]] # 2

cell: [  # Ang
#     x            y            z
  [   4.165716,    0.000000,    0.000000],
  [  -2.082858,    3.607616,    0.000000],
  [   0.000000,    0.000000,   15.299069]]

periodic: [True      , True      , False     ]
lengths:  [  4.165716,   4.165716,  15.299069]  # Ang
angles:   [ 90.000000,  90.000000, 120.000000]

symmetry:
  number of symmetries: 1
  rotations: [
    [[ 1,  0,  0], [ 0,  1,  0], [ 0,  0,  1]]]

bz sampling:
  number of bz points: 121
  number of ibz points: 121
  monkhorst-pack size: [11, 11, 1]
  monkhorst-pack shift: [0, 0, 0]
  points and weights: [
    [[ -0.45454545,  -0.45454545,   0.00000000], 0.00826446],  # 0
    [[ -0.45454545,  -0.36363636,   0.00000000], 0.00826446],  # 1
    [[ -0.45454545,  -0.27272727,   0.00000000], 0.00826446],  # 2
    [[ -0.45454545,  -0.18181818,   0.00000000], 0.00826446],  # 3
    [[ -0.45454545,  -0.09090909,   0.00000000], 0.00826446],  # 4
    [[ -0.45454545,   0.00000000,   0.00000000], 0.00826446],  # 5
    [[ -0.45454545,   0.09090909,   0.00000000], 0.00826446],  # 6
    [[ -0.45454545,   0.18181818,   0.00000000], 0.00826446],  # 7
    [[ -0.45454545,   0.27272727,   0.00000000], 0.00826446],  # 8
    [[ -0.45454545,   0.36363636,   0.00000000], 0.00826446],  # 9
    # ...
    [[  0.45454545,   0.45454545,   0.00000000], 0.00826446]]  # 120

plane wave coefficients: 7719
cutoff: 600.0 eV

spin-components: 4  # (non-collinear spins)
bands: 42
valence electrons: 29.0
spin-degeneracy: 1
dtype: complex128

memory:
    wave functions: 1_248_301_824  # bytes  (104_025_152 per core)

parallelization:
    kpt:    12
    domain: 1
    band:   1

density:
  components: 4
  grid points: [24 24 90]
  charge: 0.0  # |e|

potential:
  grid points: [24 24 90]

species:
  Mn:
    name: Manganese
    id: 0d715a8018be061a6e9ea6f2d364ac92
    Z: 25.0
    valence: 15
    core: 10
    charge: 0.0
    file: /zhome/86/d/1666/PAW/gpaw-setups-0.9.20000/Mn.LDA.gz
    compensation charges: {type: gauss,
                           rc: 0.38,
                           lmax: 2}
    cutoffs: {filter: 2.14,
              core: 0.86}
    valence states:
      #              energy  rcut
      - 3s(2.00)   -85.387   1.275
      - 4s(2.00)    -5.282   1.275
      - 3p(6.00)   -54.493   1.281
      - 4p(0.00)    -1.471   1.281
      - 3d(5.00)    -7.009   1.138
      -  d          20.203   1.138
  
    # Using partial waves for Mn as LCAO basis

  I:
    name: Iodine
    id: b559721c0c096a7b4c8fc0e0f4de5cf4
    Z: 53.0
    valence: 7
    core: 46
    charge: 0.0
    file: /zhome/86/d/1666/PAW/gpaw-setups-0.9.20000/I.LDA.gz
    compensation charges: {type: gauss,
                           rc: 0.37,
                           lmax: 2}
    cutoffs: {filter: 2.06,
              core: 2.90}
    valence states:
      #              energy  rcut
      - 5s(2.00)   -17.626   1.164
      - 5p(5.00)    -7.241   1.164
      -  s           9.585   1.164
      -  p          19.970   1.164
      -  d           0.000   1.164
  
    # Using partial waves for I as LCAO basis

Reference energy: -418222.442431  # eV

eigensolver:
  name: 'Davidson'
  niter: 2
  converge_bands: 'occupied'
Density mixing:
  Method: sum
  Backend: pulay
  Linear mixing parameter: 0.05
  old densities: 5
  Damping of long wavelength oscillations: 100
occupation numbers:
  Fermi-Dirac:
    width: 0.1000  # eV
  

poisson solver:
  ecut: 4800.0  # eV

xc functional:
  name: None

convergence criteria:
- Maximum [total energy] change in last 3 cyles: 0.0005 eV / valence electron
- Maximum integral of absolute [dens]ity change: 0.0001 electrons / valence electron
- Maximum integral of absolute [eigenst]ate change: 4e-08 eV^2 / valence electron
maximum number of iterations: 333

#      iter     time        total  log10-change:
#                          energy   eigst   dens
# iter:   1 11:16:28   -14.767990                  +4.6,+0.0,+0.0
# iter:   2 11:16:43   -15.154229   -0.15  -1.49   +4.1,-0.0,-0.0
# iter:   3 11:16:59   -15.139370   -0.77  -1.52   +4.1,-0.0,-0.0
# iter:   4 11:17:14   -15.156250   -1.06  -1.56   +4.2,-0.0,+0.0
# iter:   5 11:17:29   -15.244720   -1.36  -1.75   +4.4,+0.0,+0.0
# iter:   6 11:17:45   -15.161385   -1.65  -2.16   +4.4,+0.0,+0.0
# iter:   7 11:18:00   -15.160508   -1.61  -2.30   +4.4,+0.0,+0.0
# iter:   8 11:18:15   -15.141343   -2.15  -2.17   +4.3,+0.0,+0.0
# iter:   9 11:18:30   -15.141353   -2.44  -2.92   +4.4,+0.0,+0.0
# iter:  10 11:18:45   -15.143227c  -2.63  -3.02   +4.4,+0.0,+0.0
# iter:  11 11:19:01   -15.141430c  -2.81  -2.89   +4.4,+0.0,+0.0
# iter:  12 11:19:16   -15.141542c  -3.07  -3.46   +4.4,+0.0,+0.0
# iter:  13 11:19:31   -15.141576c  -3.25  -3.50   +4.4,+0.0,-0.0
# iter:  14 11:19:46   -15.141602c  -3.44  -3.49   +4.4,+0.0,-0.0
# iter:  15 11:20:01   -15.141612c  -3.62  -3.58   +4.4,+0.0,+0.0
# iter:  16 11:20:16   -15.141620c  -3.79  -3.94   +4.4,+0.0,+0.0
# iter:  17 11:20:31   -15.141625c  -3.97  -4.11c  +4.4,+0.0,+0.0
# iter:  18 11:20:46   -15.141633c  -4.14  -4.32c  +4.4,+0.0,+0.0
# iter:  19 11:21:01   -15.141633c  -4.30  -4.19c  +4.4,+0.0,+0.0
# iter:  20 11:21:17   -15.141632c  -4.45  -4.18c  +4.4,+0.0,-0.0
# iter:  21 11:21:32   -15.141632c  -4.60  -4.42c  +4.4,+0.0,+0.0
# iter:  22 11:21:47   -15.141632c  -4.75  -4.44c  +4.4,+0.0,+0.0
# iter:  23 11:22:02   -15.141633c  -4.91  -4.44c  +4.4,+0.0,-0.0
# iter:  24 11:22:17   -15.141632c  -5.05  -4.42c  +4.4,+0.0,-0.0
# iter:  25 11:22:32   -15.141631c  -5.18  -4.61c  +4.4,+0.0,-0.0
# iter:  26 11:22:48   -15.141630c  -5.33  -4.88c  +4.4,+0.0,+0.0
# iter:  27 11:23:03   -15.141630c  -5.47  -5.10c  +4.4,+0.0,+0.0
# iter:  28 11:23:18   -15.141631c  -5.60  -4.98c  +4.4,+0.0,+0.0
# iter:  29 11:23:33   -15.141631c  -5.74  -5.10c  +4.4,+0.0,-0.0
# iter:  30 11:23:48   -15.141631c  -5.87  -5.12c  +4.4,+0.0,+0.0
# iter:  31 11:24:03   -15.141631c  -6.02  -5.14c  +4.4,+0.0,+0.0
# iter:  32 11:24:18   -15.141631c  -6.16  -5.27c  +4.4,+0.0,-0.0
# iter:  33 11:24:34   -15.141631c  -6.29  -5.38c  +4.4,+0.0,-0.0
# iter:  34 11:24:49   -15.141631c  -6.43  -5.34c  +4.4,+0.0,-0.0
# iter:  35 11:25:04   -15.141631c  -6.56  -5.29c  +4.4,+0.0,-0.0
# iter:  36 11:25:19   -15.141631c  -6.70  -5.44c  +4.4,+0.0,-0.0
# iter:  37 11:25:34   -15.141631c  -6.83  -5.61c  +4.4,+0.0,-0.0
# iter:  38 11:25:49   -15.141631c  -6.95  -5.47c  +4.4,+0.0,-0.0
# iter:  39 11:26:05   -15.141631c  -7.07  -5.51c  +4.4,+0.0,+0.0
# iter:  40 11:26:20   -15.141631c  -7.19  -5.64c  +4.4,+0.0,+0.0
# iter:  41 11:26:35   -15.141631c  -7.30  -5.66c  +4.4,+0.0,+0.0
# iter:  42 11:26:50   -15.141631c  -7.43c -5.70c  +4.4,+0.0,+0.0
scf_steps: 42
energies:  # eV
  coulomb:         -12.460410
  zero:              0.093263
  xc:              -17.139108
  external:          0.000000
  kinetic:          14.365094
  spinorbit:         0.000000
  entropy:          -0.000939
  total:           -15.142101
  extrapolated:    -15.141631

dipole moment: [-4.823146, -8.353933, -9.743407]  # |e|*Ang

total magnetic moment: [4.374967, 0.003069, 0.000000]

local magnetic moments: [
  [ 4.322969, -0.000086, -0.000000],  # Mn 0
  [-0.002853, -0.009915,  0.000000],  # I  1
  [-0.002853, -0.009914, -0.000000]]  # I  2


Fermi level: -1.215 eV

kpt = [-0.455, -0.455, 0.000], weight = 0.008:
  Band      eig [eV]   occ [0-1]
     0       -82.168       1.000
   ...
    21        -4.222       1.000
    22        -4.035       1.000
    23        -3.769       1.000
    24        -3.656       1.000
    25        -3.562       1.000
    26        -3.560       1.000
    27        -2.208       1.000
    28        -2.207       1.000
    29        -0.328       0.000
    30        -0.197       0.000
    31        -0.142       0.000
    32         0.442       0.000
    33         0.470       0.000
    34         1.747       0.000
    35         2.524       0.000
    36         3.881       0.000
   ...
    41         5.140       0.000

kpt = [-0.455, -0.364, 0.000], weight = 0.008:
  Band      eig [eV]   occ [0-1]
     0       -82.168       1.000
   ...
    21        -4.051       1.000
    22        -3.971       1.000
    23        -3.783       1.000
    24        -3.657       1.000
    25        -3.535       1.000
    26        -3.413       1.000
    27        -2.271       1.000
    28        -2.052       1.000
    29        -0.358       0.000
    30        -0.253       0.000
    31        -0.153       0.000
    32         0.444       0.000
    33         0.528       0.000
    34         1.570       0.000
    35         2.345       0.000
    36         3.373       0.000
   ...
    41         4.795       0.000

kpt = [-0.455, -0.273, 0.000], weight = 0.008:
  Band      eig [eV]   occ [0-1]
     0       -82.168       1.000
   ...
    21        -3.949       1.000
    22        -3.743       1.000
    23        -3.732       1.000
    24        -3.592       1.000
    25        -3.450       1.000
    26        -3.297       1.000
    27        -2.252       1.000
    28        -1.934       0.999
    29        -0.462       0.001
    30        -0.272       0.000
    31        -0.150       0.000
    32         0.441       0.000
    33         0.573       0.000
    34         1.441       0.000
    35         2.130       0.000
    36         3.013       0.000
   ...
    41         4.646       0.000
(only showing first 3 out of 121 k-points)

Gap: 1.400 eV
Transition (v -> c):
  (s=0, k=93, n=28, [0.27, 0.00, 0.00]) -> (s=0, k=28, n=29, [-0.27, 0.09, 0.00])
# Writing to Band/gsq-62.gpw (mode='')

