#  __  _  _
# | _ |_)|_||  |
# |__||  | ||/\| - 24.1.0

User:   s194113@n-62-29-21
Date:   Sat Apr 27 06:06:39 2024
Arch:   x86_64
Pid:    5028
CWD:    /work3/s194113/10302/10302_NM/MnI2
Python: 3.8.5
gpaw:   /zhome/87/8/147075/venv-name/gpaw/gpaw (10808453a8)
_gpaw:  /zhome/87/8/147075/venv-name/gpaw/
        _gpaw.cpython-38-x86_64-linux-gnu.so (10808453a8)
ase:    /zhome/87/8/147075/venv-name/ase/ase (version 3.23.0b1-c36115a2db)
numpy:  /zhome/87/8/147075/venv-name/lib/python3.8/site-packages/numpy (version 1.24.4)
scipy:  /zhome/87/8/147075/venv-name/lib/python3.8/site-packages/scipy (version 1.10.1)
libxc:  4.3.4
units:  Angstrom and eV
cores: 12
OpenMP: False
OMP_NUM_THREADS: 1

---
input parameters:
  kpts: 
    density: 6.0
    gamma: True
  magmoms: [[4.4079912, 0, 0], [0.08032672, 0, 0], [0.08032672, 0, 0]]
  mixer: 
    backend: 'pulay'
    beta: 0.05
    method: 'sum'
    nmaxold: 5
    weight: 100
  mode: 
    name: 'pw'
    ecut: 600.0
    qspiral: array([0.47222222, 0.        , 0.        ])
  parallel: 
    kpt: None
    domain: 1
    band: 1
    order: 'kdb'
    stridebands: False
    augment_grids: False
    sl_auto: False
    sl_default: None
    sl_diagonalize: None
    sl_inverse_cholesky: None
    sl_lcao: None
    sl_lrtddft: None
    use_elpa: False
    elpasolver: '2stage'
    buffer_size: None
    gpu: False
  symmetry: 
    point_group: False
    time_reversal: False
  xc: 
    name: 'LDA'

#                        
#                        
#                        
#                        
#              I         
#                        
#                        
#        Mn              
#          I             
#                        
#                        
#                        
#                        
#                        

atoms: [  # symbols, positions [Ang] and initial magnetic moments
  [ Mn, [   0.000000,    0.000000,    7.649535], [ 4.408,  0.000,  0.000]], # 0
  [  I, [   2.082858,    1.202539,    9.299069], [ 0.080,  0.000,  0.000]], # 1
  [  I, [   0.000000,    2.405077,    6.000000], [ 0.080,  0.000,  0.000]]] # 2

cell: [  # Ang
#     x            y            z
  [   4.165716,    0.000000,    0.000000],
  [  -2.082858,    3.607616,    0.000000],
  [   0.000000,    0.000000,   15.299069]]

periodic: [True      , True      , False     ]
lengths:  [  4.165716,   4.165716,  15.299069]  # Ang
angles:   [ 90.000000,  90.000000, 120.000000]

symmetry:
  number of symmetries: 1
  rotations: [
    [[ 1,  0,  0], [ 0,  1,  0], [ 0,  0,  1]]]

bz sampling:
  number of bz points: 121
  number of ibz points: 121
  monkhorst-pack size: [11, 11, 1]
  monkhorst-pack shift: [0, 0, 0]
  points and weights: [
    [[ -0.45454545,  -0.45454545,   0.00000000], 0.00826446],  # 0
    [[ -0.45454545,  -0.36363636,   0.00000000], 0.00826446],  # 1
    [[ -0.45454545,  -0.27272727,   0.00000000], 0.00826446],  # 2
    [[ -0.45454545,  -0.18181818,   0.00000000], 0.00826446],  # 3
    [[ -0.45454545,  -0.09090909,   0.00000000], 0.00826446],  # 4
    [[ -0.45454545,   0.00000000,   0.00000000], 0.00826446],  # 5
    [[ -0.45454545,   0.09090909,   0.00000000], 0.00826446],  # 6
    [[ -0.45454545,   0.18181818,   0.00000000], 0.00826446],  # 7
    [[ -0.45454545,   0.27272727,   0.00000000], 0.00826446],  # 8
    [[ -0.45454545,   0.36363636,   0.00000000], 0.00826446],  # 9
    # ...
    [[  0.45454545,   0.45454545,   0.00000000], 0.00826446]]  # 120

plane wave coefficients: 7719
cutoff: 600.0 eV

spin-components: 4  # (non-collinear spins)
bands: 42
valence electrons: 29.0
spin-degeneracy: 1
dtype: complex128

memory:
    wave functions: 1_248_301_824  # bytes  (104_025_152 per core)

parallelization:
    kpt:    12
    domain: 1
    band:   1

density:
  components: 4
  grid points: [24 24 90]
  charge: 0.0  # |e|

potential:
  grid points: [24 24 90]

species:
  Mn:
    name: Manganese
    id: 0d715a8018be061a6e9ea6f2d364ac92
    Z: 25.0
    valence: 15
    core: 10
    charge: 0.0
    file: /zhome/86/d/1666/PAW/gpaw-setups-0.9.20000/Mn.LDA.gz
    compensation charges: {type: gauss,
                           rc: 0.38,
                           lmax: 2}
    cutoffs: {filter: 2.14,
              core: 0.86}
    valence states:
      #              energy  rcut
      - 3s(2.00)   -85.387   1.275
      - 4s(2.00)    -5.282   1.275
      - 3p(6.00)   -54.493   1.281
      - 4p(0.00)    -1.471   1.281
      - 3d(5.00)    -7.009   1.138
      -  d          20.203   1.138
  
    # Using partial waves for Mn as LCAO basis

  I:
    name: Iodine
    id: b559721c0c096a7b4c8fc0e0f4de5cf4
    Z: 53.0
    valence: 7
    core: 46
    charge: 0.0
    file: /zhome/86/d/1666/PAW/gpaw-setups-0.9.20000/I.LDA.gz
    compensation charges: {type: gauss,
                           rc: 0.37,
                           lmax: 2}
    cutoffs: {filter: 2.06,
              core: 2.90}
    valence states:
      #              energy  rcut
      - 5s(2.00)   -17.626   1.164
      - 5p(5.00)    -7.241   1.164
      -  s           9.585   1.164
      -  p          19.970   1.164
      -  d           0.000   1.164
  
    # Using partial waves for I as LCAO basis

Reference energy: -418222.442431  # eV

eigensolver:
  name: 'Davidson'
  niter: 2
  converge_bands: 'occupied'
Density mixing:
  Method: sum
  Backend: pulay
  Linear mixing parameter: 0.05
  old densities: 5
  Damping of long wavelength oscillations: 100
occupation numbers:
  Fermi-Dirac:
    width: 0.1000  # eV
  

poisson solver:
  ecut: 4800.0  # eV

xc functional:
  name: None

convergence criteria:
- Maximum [total energy] change in last 3 cyles: 0.0005 eV / valence electron
- Maximum integral of absolute [dens]ity change: 0.0001 electrons / valence electron
- Maximum integral of absolute [eigenst]ate change: 4e-08 eV^2 / valence electron
maximum number of iterations: 333

#      iter     time        total  log10-change:
#                          energy   eigst   dens
# iter:   1 06:07:04   -14.838402                  +4.6,+0.0,+0.0
# iter:   2 06:07:19   -15.158456   -0.21  -1.49   +4.2,-0.0,-0.0
# iter:   3 06:07:35   -15.138370   -0.82  -1.52   +4.2,-0.0,-0.0
# iter:   4 06:07:50   -15.151159   -1.11  -1.56   +4.3,-0.0,-0.0
# iter:   5 06:08:05   -15.236687   -1.40  -1.76   +4.4,-0.0,-0.0
# iter:   6 06:08:21   -15.156240   -1.69  -2.17   +4.5,+0.0,-0.0
# iter:   7 06:08:36   -15.164755   -1.60  -2.29   +4.5,+0.0,-0.0
# iter:   8 06:08:52   -15.137964   -2.19  -2.14   +4.4,+0.0,-0.0
# iter:   9 06:09:07   -15.137612   -2.48  -2.88   +4.4,+0.0,-0.0
# iter:  10 06:09:23   -15.139554c  -2.69  -3.00   +4.4,+0.0,+0.0
# iter:  11 06:09:38   -15.137688c  -2.89  -2.90   +4.4,+0.0,+0.0
# iter:  12 06:09:54   -15.137797c  -3.14  -3.45   +4.4,+0.0,-0.0
# iter:  13 06:10:09   -15.137826c  -3.33  -3.51   +4.4,+0.0,-0.0
# iter:  14 06:10:24   -15.137852c  -3.51  -3.55   +4.4,+0.0,-0.0
# iter:  15 06:10:39   -15.137868c  -3.69  -3.68   +4.4,+0.0,-0.0
# iter:  16 06:10:55   -15.137875c  -3.86  -3.98   +4.4,+0.0,-0.0
# iter:  17 06:11:10   -15.137880c  -4.03  -4.13c  +4.4,+0.0,+0.0
# iter:  18 06:11:25   -15.137882c  -4.20  -4.27c  +4.4,+0.0,+0.0
# iter:  19 06:11:41   -15.137881c  -4.37  -4.35c  +4.4,+0.0,+0.0
# iter:  20 06:11:56   -15.137878c  -4.52  -4.45c  +4.4,+0.0,+0.0
# iter:  21 06:12:11   -15.137879c  -4.67  -4.67c  +4.4,+0.0,-0.0
# iter:  22 06:12:27   -15.137880c  -4.83  -4.76c  +4.4,+0.0,-0.0
# iter:  23 06:12:42   -15.137880c  -4.98  -4.76c  +4.4,+0.0,-0.0
# iter:  24 06:12:57   -15.137880c  -5.13  -4.79c  +4.4,+0.0,-0.0
# iter:  25 06:13:12   -15.137881c  -5.28  -4.93c  +4.4,+0.0,-0.0
# iter:  26 06:13:28   -15.137881c  -5.43  -5.13c  +4.4,+0.0,-0.0
# iter:  27 06:13:43   -15.137881c  -5.57  -5.11c  +4.4,+0.0,-0.0
# iter:  28 06:13:58   -15.137881c  -5.71  -5.11c  +4.4,+0.0,-0.0
# iter:  29 06:14:14   -15.137881c  -5.84  -5.09c  +4.4,+0.0,-0.0
# iter:  30 06:14:29   -15.137882c  -5.98  -5.11c  +4.4,+0.0,-0.0
# iter:  31 06:14:44   -15.137882c  -6.11  -5.11c  +4.4,+0.0,-0.0
# iter:  32 06:14:59   -15.137882c  -6.25  -5.15c  +4.4,+0.0,-0.0
# iter:  33 06:15:15   -15.137881c  -6.39  -5.29c  +4.4,+0.0,-0.0
# iter:  34 06:15:30   -15.137881c  -6.52  -5.63c  +4.4,+0.0,-0.0
# iter:  35 06:15:45   -15.137881c  -6.65  -5.74c  +4.4,+0.0,-0.0
# iter:  36 06:16:00   -15.137881c  -6.77  -5.77c  +4.4,+0.0,-0.0
# iter:  37 06:16:16   -15.137881c  -6.90  -6.00c  +4.4,+0.0,-0.0
# iter:  38 06:16:31   -15.137881c  -7.02  -6.16c  +4.4,+0.0,-0.0
# iter:  39 06:16:46   -15.137881c  -7.14  -6.35c  +4.4,+0.0,-0.0
# iter:  40 06:17:01   -15.137881c  -7.26  -5.99c  +4.4,+0.0,-0.0
# iter:  41 06:17:17   -15.137881c  -7.39  -6.33c  +4.4,+0.0,-0.0
# iter:  42 06:17:32   -15.137881c  -7.51c -6.33c  +4.4,+0.0,-0.0
scf_steps: 42
energies:  # eV
  coulomb:         -12.543821
  zero:              0.093244
  xc:              -17.154176
  external:          0.000000
  kinetic:          14.467523
  spinorbit:         0.000000
  entropy:          -0.001304
  total:           -15.138533
  extrapolated:    -15.137881

dipole moment: [-4.615037, -8.725054, -9.954020]  # |e|*Ang

total magnetic moment: [4.430310, 0.001917, -0.000000]

local magnetic moments: [
  [ 4.328571, -0.000046, -0.000000],  # Mn 0
  [-0.023201, -0.008284, -0.000000],  # I  1
  [ 0.024287, -0.004129, -0.000000]]  # I  2


Fermi level: -1.212 eV

kpt = [-0.455, -0.455, 0.000], weight = 0.008:
  Band      eig [eV]   occ [0-1]
     0       -82.176       1.000
   ...
    21        -4.065       1.000
    22        -3.912       1.000
    23        -3.854       1.000
    24        -3.748       1.000
    25        -3.465       1.000
    26        -3.357       1.000
    27        -2.293       1.000
    28        -2.049       1.000
    29        -0.374       0.000
    30        -0.252       0.000
    31        -0.144       0.000
    32         0.369       0.000
    33         0.586       0.000
    34         1.709       0.000
    35         2.458       0.000
    36         3.612       0.000
   ...
    41         5.017       0.000

kpt = [-0.455, -0.364, 0.000], weight = 0.008:
  Band      eig [eV]   occ [0-1]
     0       -82.176       1.000
   ...
    21        -3.950       1.000
    22        -3.843       1.000
    23        -3.719       1.000
    24        -3.644       1.000
    25        -3.392       1.000
    26        -3.288       1.000
    27        -2.315       1.000
    28        -1.984       1.000
    29        -0.403       0.000
    30        -0.256       0.000
    31        -0.140       0.000
    32         0.385       0.000
    33         0.548       0.000
    34         1.648       0.000
    35         2.339       0.000
    36         3.205       0.000
   ...
    41         5.003       0.000

kpt = [-0.455, -0.273, 0.000], weight = 0.008:
  Band      eig [eV]   occ [0-1]
     0       -82.176       1.000
   ...
    21        -3.861       1.000
    22        -3.745       1.000
    23        -3.593       1.000
    24        -3.536       1.000
    25        -3.346       1.000
    26        -3.170       1.000
    27        -2.421       1.000
    28        -1.917       0.999
    29        -0.384       0.000
    30        -0.225       0.000
    31        -0.196       0.000
    32         0.299       0.000
    33         0.554       0.000
    34         1.830       0.000
    35         2.484       0.000
    36         3.154       0.000
   ...
    41         5.149       0.000
(only showing first 3 out of 121 k-points)

Gap: 1.133 eV
Transition (v -> c):
  (s=0, k=60, n=28, [0.00, 0.00, 0.00]) -> (s=0, k=115, n=29, [0.45, 0.00, 0.00])
# Writing to Band/gsq-34.gpw (mode='')

---

timing:  # [seconds]
  Total: 653.000  # ━━━━━━━━━━━━━━━━━━━━━━━━━━━━━━━━━━━━━━━━━━━━━━━━━━━━━━━━━
  Init:   10.123  # ━
  SCF:   642.503  # ━━━━━━━━━━━━━━━━━━━━━━━━━━━━━━━━━━━━━━━━━━━━━━━━━━━━━━━━

Max RSS: 1048.480  # MiB
