#  __  _  _
# | _ |_)|_||  |
# |__||  | ||/\| - 24.1.0

User:   s194113@n-62-29-21
Date:   Sat Apr 27 06:17:32 2024
Arch:   x86_64
Pid:    5028
CWD:    /work3/s194113/10302/10302_NM/MnI2
Python: 3.8.5
gpaw:   /zhome/87/8/147075/venv-name/gpaw/gpaw (10808453a8)
_gpaw:  /zhome/87/8/147075/venv-name/gpaw/
        _gpaw.cpython-38-x86_64-linux-gnu.so (10808453a8)
ase:    /zhome/87/8/147075/venv-name/ase/ase (version 3.23.0b1-c36115a2db)
numpy:  /zhome/87/8/147075/venv-name/lib/python3.8/site-packages/numpy (version 1.24.4)
scipy:  /zhome/87/8/147075/venv-name/lib/python3.8/site-packages/scipy (version 1.10.1)
libxc:  4.3.4
units:  Angstrom and eV
cores: 12
OpenMP: False
OMP_NUM_THREADS: 1

---
input parameters:
  kpts: 
    density: 6.0
    gamma: True
  magmoms: [[4.4079912, 0, 0], [0.08032672, 0, 0], [0.08032672, 0, 0]]
  mixer: 
    backend: 'pulay'
    beta: 0.05
    method: 'sum'
    nmaxold: 5
    weight: 100
  mode: 
    name: 'pw'
    ecut: 600.0
    qspiral: array([0.48611111, 0.        , 0.        ])
  parallel: 
    kpt: None
    domain: 1
    band: 1
    order: 'kdb'
    stridebands: False
    augment_grids: False
    sl_auto: False
    sl_default: None
    sl_diagonalize: None
    sl_inverse_cholesky: None
    sl_lcao: None
    sl_lrtddft: None
    use_elpa: False
    elpasolver: '2stage'
    buffer_size: None
    gpu: False
  symmetry: 
    point_group: False
    time_reversal: False
  xc: 
    name: 'LDA'

#                        
#                        
#                        
#                        
#              I         
#                        
#                        
#        Mn              
#          I             
#                        
#                        
#                        
#                        
#                        

atoms: [  # symbols, positions [Ang] and initial magnetic moments
  [ Mn, [   0.000000,    0.000000,    7.649535], [ 4.408,  0.000,  0.000]], # 0
  [  I, [   2.082858,    1.202539,    9.299069], [ 0.080,  0.000,  0.000]], # 1
  [  I, [   0.000000,    2.405077,    6.000000], [ 0.080,  0.000,  0.000]]] # 2

cell: [  # Ang
#     x            y            z
  [   4.165716,    0.000000,    0.000000],
  [  -2.082858,    3.607616,    0.000000],
  [   0.000000,    0.000000,   15.299069]]

periodic: [True      , True      , False     ]
lengths:  [  4.165716,   4.165716,  15.299069]  # Ang
angles:   [ 90.000000,  90.000000, 120.000000]

symmetry:
  number of symmetries: 1
  rotations: [
    [[ 1,  0,  0], [ 0,  1,  0], [ 0,  0,  1]]]

bz sampling:
  number of bz points: 121
  number of ibz points: 121
  monkhorst-pack size: [11, 11, 1]
  monkhorst-pack shift: [0, 0, 0]
  points and weights: [
    [[ -0.45454545,  -0.45454545,   0.00000000], 0.00826446],  # 0
    [[ -0.45454545,  -0.36363636,   0.00000000], 0.00826446],  # 1
    [[ -0.45454545,  -0.27272727,   0.00000000], 0.00826446],  # 2
    [[ -0.45454545,  -0.18181818,   0.00000000], 0.00826446],  # 3
    [[ -0.45454545,  -0.09090909,   0.00000000], 0.00826446],  # 4
    [[ -0.45454545,   0.00000000,   0.00000000], 0.00826446],  # 5
    [[ -0.45454545,   0.09090909,   0.00000000], 0.00826446],  # 6
    [[ -0.45454545,   0.18181818,   0.00000000], 0.00826446],  # 7
    [[ -0.45454545,   0.27272727,   0.00000000], 0.00826446],  # 8
    [[ -0.45454545,   0.36363636,   0.00000000], 0.00826446],  # 9
    # ...
    [[  0.45454545,   0.45454545,   0.00000000], 0.00826446]]  # 120

plane wave coefficients: 7719
cutoff: 600.0 eV

spin-components: 4  # (non-collinear spins)
bands: 42
valence electrons: 29.0
spin-degeneracy: 1
dtype: complex128

memory:
    wave functions: 1_248_301_824  # bytes  (104_025_152 per core)

parallelization:
    kpt:    12
    domain: 1
    band:   1

density:
  components: 4
  grid points: [24 24 90]
  charge: 0.0  # |e|

potential:
  grid points: [24 24 90]

species:
  Mn:
    name: Manganese
    id: 0d715a8018be061a6e9ea6f2d364ac92
    Z: 25.0
    valence: 15
    core: 10
    charge: 0.0
    file: /zhome/86/d/1666/PAW/gpaw-setups-0.9.20000/Mn.LDA.gz
    compensation charges: {type: gauss,
                           rc: 0.38,
                           lmax: 2}
    cutoffs: {filter: 2.14,
              core: 0.86}
    valence states:
      #              energy  rcut
      - 3s(2.00)   -85.387   1.275
      - 4s(2.00)    -5.282   1.275
      - 3p(6.00)   -54.493   1.281
      - 4p(0.00)    -1.471   1.281
      - 3d(5.00)    -7.009   1.138
      -  d          20.203   1.138
  
    # Using partial waves for Mn as LCAO basis

  I:
    name: Iodine
    id: b559721c0c096a7b4c8fc0e0f4de5cf4
    Z: 53.0
    valence: 7
    core: 46
    charge: 0.0
    file: /zhome/86/d/1666/PAW/gpaw-setups-0.9.20000/I.LDA.gz
    compensation charges: {type: gauss,
                           rc: 0.37,
                           lmax: 2}
    cutoffs: {filter: 2.06,
              core: 2.90}
    valence states:
      #              energy  rcut
      - 5s(2.00)   -17.626   1.164
      - 5p(5.00)    -7.241   1.164
      -  s           9.585   1.164
      -  p          19.970   1.164
      -  d           0.000   1.164
  
    # Using partial waves for I as LCAO basis

Reference energy: -418222.442431  # eV

eigensolver:
  name: 'Davidson'
  niter: 2
  converge_bands: 'occupied'
Density mixing:
  Method: sum
  Backend: pulay
  Linear mixing parameter: 0.05
  old densities: 5
  Damping of long wavelength oscillations: 100
occupation numbers:
  Fermi-Dirac:
    width: 0.1000  # eV
  

poisson solver:
  ecut: 4800.0  # eV

xc functional:
  name: None

convergence criteria:
- Maximum [total energy] change in last 3 cyles: 0.0005 eV / valence electron
- Maximum integral of absolute [dens]ity change: 0.0001 electrons / valence electron
- Maximum integral of absolute [eigenst]ate change: 4e-08 eV^2 / valence electron
maximum number of iterations: 333

#      iter     time        total  log10-change:
#                          energy   eigst   dens
# iter:   1 06:17:57   -14.809623                  +4.6,+0.0,+0.0
# iter:   2 06:18:12   -15.154874   -0.19  -1.49   +4.2,-0.0,+0.0
# iter:   3 06:18:27   -15.137943   -0.81  -1.52   +4.1,-0.0,+0.0
# iter:   4 06:18:42   -15.151547   -1.09  -1.56   +4.2,-0.0,+0.0
# iter:   5 06:18:58   -15.239188   -1.39  -1.76   +4.4,-0.0,+0.0
# iter:   6 06:19:13   -15.155374   -1.67  -2.16   +4.5,+0.0,+0.0
# iter:   7 06:19:28   -15.163152   -1.61  -2.29   +4.4,+0.0,+0.0
# iter:   8 06:19:44   -15.137745   -2.18  -2.14   +4.4,+0.0,+0.0
# iter:   9 06:19:59   -15.137588   -2.47  -2.90   +4.4,+0.0,+0.0
# iter:  10 06:20:14   -15.139432c  -2.68  -3.02   +4.4,+0.0,-0.0
# iter:  11 06:20:30   -15.137671c  -2.87  -2.90   +4.4,+0.0,+0.0
# iter:  12 06:20:45   -15.137777c  -3.12  -3.44   +4.4,+0.0,-0.0
# iter:  13 06:21:01   -15.137804c  -3.32  -3.51   +4.4,+0.0,-0.0
# iter:  14 06:21:16   -15.137861c  -3.49  -3.56   +4.4,+0.0,+0.0
# iter:  15 06:21:31   -15.137876c  -3.67  -3.62   +4.4,+0.0,+0.0
# iter:  16 06:21:47   -15.137872c  -3.84  -3.77   +4.4,+0.0,+0.0
# iter:  17 06:22:02   -15.137873c  -4.00  -3.82   +4.4,+0.0,+0.0
# iter:  18 06:22:17   -15.137865c  -4.17  -4.21c  +4.4,+0.0,+0.0
# iter:  19 06:22:32   -15.137865c  -4.34  -4.37c  +4.4,+0.0,+0.0
# iter:  20 06:22:47   -15.137866c  -4.49  -4.49c  +4.4,+0.0,+0.0
# iter:  21 06:23:03   -15.137865c  -4.65  -4.58c  +4.4,+0.0,+0.0
# iter:  22 06:23:18   -15.137866c  -4.79  -4.66c  +4.4,+0.0,+0.0
# iter:  23 06:23:33   -15.137867c  -4.94  -4.71c  +4.4,+0.0,+0.0
# iter:  24 06:23:48   -15.137867c  -5.08  -4.73c  +4.4,+0.0,+0.0
# iter:  25 06:24:04   -15.137868c  -5.23  -4.85c  +4.4,+0.0,+0.0
# iter:  26 06:24:19   -15.137868c  -5.37  -4.82c  +4.4,+0.0,+0.0
# iter:  27 06:24:34   -15.137868c  -5.51  -4.90c  +4.4,+0.0,+0.0
# iter:  28 06:24:49   -15.137868c  -5.66  -5.03c  +4.4,+0.0,+0.0
# iter:  29 06:25:05   -15.137868c  -5.80  -5.08c  +4.4,+0.0,+0.0
# iter:  30 06:25:20   -15.137868c  -5.93  -5.10c  +4.4,+0.0,+0.0
# iter:  31 06:25:35   -15.137867c  -6.07  -5.30c  +4.4,+0.0,+0.0
# iter:  32 06:25:51   -15.137867c  -6.19  -5.39c  +4.4,+0.0,+0.0
# iter:  33 06:26:06   -15.137868c  -6.32  -5.43c  +4.4,+0.0,+0.0
# iter:  34 06:26:21   -15.137868c  -6.45  -5.53c  +4.4,+0.0,+0.0
# iter:  35 06:26:36   -15.137868c  -6.58  -5.57c  +4.4,+0.0,+0.0
# iter:  36 06:26:52   -15.137868c  -6.70  -5.67c  +4.4,+0.0,+0.0
# iter:  37 06:27:07   -15.137868c  -6.82  -5.99c  +4.4,+0.0,+0.0
# iter:  38 06:27:22   -15.137868c  -6.94  -6.09c  +4.4,+0.0,+0.0
# iter:  39 06:27:37   -15.137868c  -7.06  -6.22c  +4.4,+0.0,+0.0
# iter:  40 06:27:52   -15.137868c  -7.19  -6.26c  +4.4,+0.0,+0.0
# iter:  41 06:28:08   -15.137867c  -7.31  -6.43c  +4.4,+0.0,+0.0
# iter:  42 06:28:23   -15.137867c  -7.43c -6.60c  +4.4,+0.0,+0.0
scf_steps: 42
energies:  # eV
  coulomb:         -12.542770
  zero:              0.093214
  xc:              -17.153944
  external:          0.000000
  kinetic:          14.466286
  spinorbit:         0.000000
  entropy:          -0.001307
  total:           -15.138521
  extrapolated:    -15.137867

dipole moment: [-4.572971, -8.685027, -9.790495]  # |e|*Ang

total magnetic moment: [4.410474, 0.000969, 0.000000]

local magnetic moments: [
  [ 4.328476, -0.000016,  0.000000],  # Mn 0
  [-0.023722, -0.004155,  0.000000],  # I  1
  [ 0.023994, -0.002071,  0.000000]]  # I  2


Fermi level: -1.211 eV

kpt = [-0.455, -0.455, 0.000], weight = 0.008:
  Band      eig [eV]   occ [0-1]
     0       -82.176       1.000
   ...
    21        -4.061       1.000
    22        -3.912       1.000
    23        -3.855       1.000
    24        -3.750       1.000
    25        -3.464       1.000
    26        -3.354       1.000
    27        -2.297       1.000
    28        -2.049       1.000
    29        -0.366       0.000
    30        -0.258       0.000
    31        -0.144       0.000
    32         0.366       0.000
    33         0.586       0.000
    34         1.719       0.000
    35         2.464       0.000
    36         3.636       0.000
   ...
    41         5.006       0.000

kpt = [-0.455, -0.364, 0.000], weight = 0.008:
  Band      eig [eV]   occ [0-1]
     0       -82.176       1.000
   ...
    21        -3.951       1.000
    22        -3.836       1.000
    23        -3.720       1.000
    24        -3.644       1.000
    25        -3.386       1.000
    26        -3.281       1.000
    27        -2.315       1.000
    28        -1.987       1.000
    29        -0.394       0.000
    30        -0.266       0.000
    31        -0.139       0.000
    32         0.380       0.000
    33         0.548       0.000
    34         1.663       0.000
    35         2.343       0.000
    36         3.232       0.000
   ...
    41         4.975       0.000

kpt = [-0.455, -0.273, 0.000], weight = 0.008:
  Band      eig [eV]   occ [0-1]
     0       -82.176       1.000
   ...
    21        -3.854       1.000
    22        -3.730       1.000
    23        -3.581       1.000
    24        -3.531       1.000
    25        -3.334       1.000
    26        -3.158       1.000
    27        -2.426       1.000
    28        -1.909       0.999
    29        -0.386       0.000
    30        -0.231       0.000
    31        -0.194       0.000
    32         0.295       0.000
    33         0.556       0.000
    34         1.834       0.000
    35         2.485       0.000
    36         3.136       0.000
   ...
    41         5.123       0.000
(only showing first 3 out of 121 k-points)

Gap: 1.143 eV
Transition (v -> c):
  (s=0, k=60, n=28, [0.00, 0.00, 0.00]) -> (s=0, k=115, n=29, [0.45, 0.00, 0.00])
# Writing to Band/gsq-35.gpw (mode='')

---

timing:  # [seconds]
  Total: 651.292  # ━━━━━━━━━━━━━━━━━━━━━━━━━━━━━━━━━━━━━━━━━━━━━━━━━━━━━━━━━
  Init:   10.103  # ━
  SCF:   640.822  # ━━━━━━━━━━━━━━━━━━━━━━━━━━━━━━━━━━━━━━━━━━━━━━━━━━━━━━━━

Max RSS: 1058.691  # MiB
