#  __  _  _
# | _ |_)|_||  |
# |__||  | ||/\| - 24.1.0

User:   s194113@n-62-29-21
Date:   Sat Apr 27 16:35:02 2024
Arch:   x86_64
Pid:    5028
CWD:    /work3/s194113/10302/10302_NM/MnI2
Python: 3.8.5
gpaw:   /zhome/87/8/147075/venv-name/gpaw/gpaw (10808453a8)
_gpaw:  /zhome/87/8/147075/venv-name/gpaw/
        _gpaw.cpython-38-x86_64-linux-gnu.so (10808453a8)
ase:    /zhome/87/8/147075/venv-name/ase/ase (version 3.23.0b1-c36115a2db)
numpy:  /zhome/87/8/147075/venv-name/lib/python3.8/site-packages/numpy (version 1.24.4)
scipy:  /zhome/87/8/147075/venv-name/lib/python3.8/site-packages/scipy (version 1.10.1)
libxc:  4.3.4
units:  Angstrom and eV
cores: 12
OpenMP: False
OMP_NUM_THREADS: 1

---
input parameters:
  kpts: 
    density: 6.0
    gamma: True
  magmoms: [[4.4079912, 0, 0], [0.08032672, 0, 0], [0.08032672, 0, 0]]
  mixer: 
    backend: 'pulay'
    beta: 0.05
    method: 'sum'
    nmaxold: 5
    weight: 100
  mode: 
    name: 'pw'
    ecut: 600.0
    qspiral: array([0.05426357, 0.05426357, 0.        ])
  parallel: 
    kpt: None
    domain: 1
    band: 1
    order: 'kdb'
    stridebands: False
    augment_grids: False
    sl_auto: False
    sl_default: None
    sl_diagonalize: None
    sl_inverse_cholesky: None
    sl_lcao: None
    sl_lrtddft: None
    use_elpa: False
    elpasolver: '2stage'
    buffer_size: None
    gpu: False
  symmetry: 
    point_group: False
    time_reversal: False
  xc: 
    name: 'LDA'

#                        
#                        
#                        
#                        
#              I         
#                        
#                        
#        Mn              
#          I             
#                        
#                        
#                        
#                        
#                        

atoms: [  # symbols, positions [Ang] and initial magnetic moments
  [ Mn, [   0.000000,    0.000000,    7.649535], [ 4.408,  0.000,  0.000]], # 0
  [  I, [   2.082858,    1.202539,    9.299069], [ 0.080,  0.000,  0.000]], # 1
  [  I, [   0.000000,    2.405077,    6.000000], [ 0.080,  0.000,  0.000]]] # 2

cell: [  # Ang
#     x            y            z
  [   4.165716,    0.000000,    0.000000],
  [  -2.082858,    3.607616,    0.000000],
  [   0.000000,    0.000000,   15.299069]]

periodic: [True      , True      , False     ]
lengths:  [  4.165716,   4.165716,  15.299069]  # Ang
angles:   [ 90.000000,  90.000000, 120.000000]

symmetry:
  number of symmetries: 1
  rotations: [
    [[ 1,  0,  0], [ 0,  1,  0], [ 0,  0,  1]]]

bz sampling:
  number of bz points: 121
  number of ibz points: 121
  monkhorst-pack size: [11, 11, 1]
  monkhorst-pack shift: [0, 0, 0]
  points and weights: [
    [[ -0.45454545,  -0.45454545,   0.00000000], 0.00826446],  # 0
    [[ -0.45454545,  -0.36363636,   0.00000000], 0.00826446],  # 1
    [[ -0.45454545,  -0.27272727,   0.00000000], 0.00826446],  # 2
    [[ -0.45454545,  -0.18181818,   0.00000000], 0.00826446],  # 3
    [[ -0.45454545,  -0.09090909,   0.00000000], 0.00826446],  # 4
    [[ -0.45454545,   0.00000000,   0.00000000], 0.00826446],  # 5
    [[ -0.45454545,   0.09090909,   0.00000000], 0.00826446],  # 6
    [[ -0.45454545,   0.18181818,   0.00000000], 0.00826446],  # 7
    [[ -0.45454545,   0.27272727,   0.00000000], 0.00826446],  # 8
    [[ -0.45454545,   0.36363636,   0.00000000], 0.00826446],  # 9
    # ...
    [[  0.45454545,   0.45454545,   0.00000000], 0.00826446]]  # 120

plane wave coefficients: 7719
cutoff: 600.0 eV

spin-components: 4  # (non-collinear spins)
bands: 42
valence electrons: 29.0
spin-degeneracy: 1
dtype: complex128

memory:
    wave functions: 1_248_301_824  # bytes  (104_025_152 per core)

parallelization:
    kpt:    12
    domain: 1
    band:   1

density:
  components: 4
  grid points: [24 24 90]
  charge: 0.0  # |e|

potential:
  grid points: [24 24 90]

species:
  Mn:
    name: Manganese
    id: 0d715a8018be061a6e9ea6f2d364ac92
    Z: 25.0
    valence: 15
    core: 10
    charge: 0.0
    file: /zhome/86/d/1666/PAW/gpaw-setups-0.9.20000/Mn.LDA.gz
    compensation charges: {type: gauss,
                           rc: 0.38,
                           lmax: 2}
    cutoffs: {filter: 2.14,
              core: 0.86}
    valence states:
      #              energy  rcut
      - 3s(2.00)   -85.387   1.275
      - 4s(2.00)    -5.282   1.275
      - 3p(6.00)   -54.493   1.281
      - 4p(0.00)    -1.471   1.281
      - 3d(5.00)    -7.009   1.138
      -  d          20.203   1.138
  
    # Using partial waves for Mn as LCAO basis

  I:
    name: Iodine
    id: b559721c0c096a7b4c8fc0e0f4de5cf4
    Z: 53.0
    valence: 7
    core: 46
    charge: 0.0
    file: /zhome/86/d/1666/PAW/gpaw-setups-0.9.20000/I.LDA.gz
    compensation charges: {type: gauss,
                           rc: 0.37,
                           lmax: 2}
    cutoffs: {filter: 2.06,
              core: 2.90}
    valence states:
      #              energy  rcut
      - 5s(2.00)   -17.626   1.164
      - 5p(5.00)    -7.241   1.164
      -  s           9.585   1.164
      -  p          19.970   1.164
      -  d           0.000   1.164
  
    # Using partial waves for I as LCAO basis

Reference energy: -418222.442431  # eV

eigensolver:
  name: 'Davidson'
  niter: 2
  converge_bands: 'occupied'
Density mixing:
  Method: sum
  Backend: pulay
  Linear mixing parameter: 0.05
  old densities: 5
  Damping of long wavelength oscillations: 100
occupation numbers:
  Fermi-Dirac:
    width: 0.1000  # eV
  

poisson solver:
  ecut: 4800.0  # eV

xc functional:
  name: None

convergence criteria:
- Maximum [total energy] change in last 3 cyles: 0.0005 eV / valence electron
- Maximum integral of absolute [dens]ity change: 0.0001 electrons / valence electron
- Maximum integral of absolute [eigenst]ate change: 4e-08 eV^2 / valence electron
maximum number of iterations: 333

#      iter     time        total  log10-change:
#                          energy   eigst   dens
# iter:   1 16:35:27   -15.203453                  +4.6,+0.0,+0.0
# iter:   2 16:35:42   -15.184473   -0.76  -1.49   +4.7,-0.0,+0.0
# iter:   3 16:35:58   -15.109186   -1.17  -1.51   +4.8,+0.0,+0.0
# iter:   4 16:36:13   -15.119511   -1.50  -1.60   +4.8,+0.0,+0.0
# iter:   5 16:36:29   -15.157878   -1.75  -1.79   +4.9,+0.0,-0.0
# iter:   6 16:36:44   -15.126209   -1.98  -2.29   +5.0,+0.0,-0.0
# iter:   7 16:37:00   -15.124250   -2.29  -2.41   +5.0,+0.0,+0.0
# iter:   8 16:37:16   -15.147474   -2.35  -2.78   +4.9,+0.0,-0.0
# iter:   9 16:37:31   -15.131457   -2.82  -2.38   +4.9,+0.0,-0.0
# iter:  10 16:37:46   -15.123525   -2.74  -2.63   +4.9,+0.0,-0.0
# iter:  11 16:38:02   -15.123969c  -3.33  -3.49   +4.9,+0.0,-0.0
# iter:  12 16:38:17   -15.124548c  -3.44  -3.49   +4.9,+0.0,-0.0
# iter:  13 16:38:33   -15.124362c  -3.79  -3.16   +5.0,+0.0,-0.0
# iter:  14 16:38:48   -15.124012c  -3.87  -3.22   +5.0,+0.0,-0.0
# iter:  15 16:39:04   -15.124010c  -4.10  -3.66   +5.0,+0.0,-0.0
# iter:  16 16:39:20   -15.124009c  -4.26  -3.86   +5.0,+0.0,-0.0
# iter:  17 16:39:35   -15.124040c  -4.43  -4.18c  +5.0,+0.0,-0.0
# iter:  18 16:39:51   -15.124043c  -4.62  -4.06c  +5.0,+0.0,-0.0
# iter:  19 16:40:06   -15.124049c  -4.78  -4.03c  +5.0,+0.0,-0.0
# iter:  20 16:40:22   -15.124051c  -4.94  -4.01c  +5.0,+0.0,-0.0
# iter:  21 16:40:37   -15.124065c  -5.09  -4.00   +5.0,+0.0,-0.0
# iter:  22 16:40:53   -15.124042c  -5.24  -3.89   +5.0,+0.0,-0.0
# iter:  23 16:41:08   -15.124025c  -5.37  -4.05c  +5.0,+0.0,-0.0
# iter:  24 16:41:23   -15.124023c  -5.56  -4.31c  +5.0,+0.0,-0.0
# iter:  25 16:41:38   -15.124026c  -5.71  -4.37c  +5.0,+0.0,-0.0
# iter:  26 16:41:54   -15.124024c  -5.86  -4.42c  +5.0,+0.0,-0.0
# iter:  27 16:42:09   -15.124022c  -6.02  -4.46c  +5.0,+0.0,-0.0
# iter:  28 16:42:24   -15.124022c  -6.18  -4.52c  +5.0,+0.0,-0.0
# iter:  29 16:42:40   -15.124021c  -6.26  -4.55c  +5.0,+0.0,-0.0
# iter:  30 16:42:55   -15.124020c  -6.45  -5.12c  +5.0,+0.0,-0.0
# iter:  31 16:43:10   -15.124020c  -6.61  -5.13c  +5.0,+0.0,-0.0
# iter:  32 16:43:25   -15.124021c  -6.76  -5.35c  +5.0,+0.0,-0.0
# iter:  33 16:43:41   -15.124021c  -6.92  -5.43c  +5.0,+0.0,-0.0
# iter:  34 16:43:56   -15.124022c  -7.03  -5.48c  +5.0,+0.0,-0.0
# iter:  35 16:44:11   -15.124021c  -7.19  -5.33c  +5.0,+0.0,-0.0
# iter:  36 16:44:26   -15.124021c  -7.37  -6.07c  +5.0,+0.0,-0.0
# iter:  37 16:44:42   -15.124021c  -7.51c -6.10c  +5.0,+0.0,-0.0
scf_steps: 37
energies:  # eV
  coulomb:         -12.990701
  zero:              0.091878
  xc:              -17.241426
  external:          0.000000
  kinetic:          15.017282
  spinorbit:         0.000000
  entropy:          -0.002107
  total:           -15.125075
  extrapolated:    -15.124021

dipole moment: [-5.665915, -9.813653, -14.261597]  # |e|*Ang

total magnetic moment: [4.956669, 0.008253, -0.000000]

local magnetic moments: [
  [ 4.357919, -0.000262, -0.000000],  # Mn 0
  [ 0.076401, -0.027112, -0.000000],  # I  1
  [ 0.076401, -0.027113, -0.000000]]  # I  2


Fermi level: -1.257 eV

kpt = [-0.455, -0.455, 0.000], weight = 0.008:
  Band      eig [eV]   occ [0-1]
     0       -82.217       1.000
   ...
    21        -3.926       1.000
    22        -3.847       1.000
    23        -3.846       1.000
    24        -3.755       1.000
    25        -3.680       1.000
    26        -3.607       1.000
    27        -2.061       1.000
    28        -2.028       1.000
    29        -0.657       0.002
    30        -0.160       0.000
    31        -0.157       0.000
    32         0.517       0.000
    33         0.663       0.000
    34         1.167       0.000
    35         2.093       0.000
    36         2.929       0.000
   ...
    41         4.576       0.000

kpt = [-0.455, -0.364, 0.000], weight = 0.008:
  Band      eig [eV]   occ [0-1]
     0       -82.217       1.000
   ...
    21        -4.032       1.000
    22        -3.960       1.000
    23        -3.852       1.000
    24        -3.753       1.000
    25        -3.592       1.000
    26        -3.545       1.000
    27        -2.256       1.000
    28        -2.089       1.000
    29        -0.473       0.000
    30        -0.177       0.000
    31        -0.158       0.000
    32         0.408       0.000
    33         0.605       0.000
    34         1.505       0.000
    35         2.411       0.000
    36         3.456       0.000
   ...
    41         4.767       0.000

kpt = [-0.455, -0.273, 0.000], weight = 0.008:
  Band      eig [eV]   occ [0-1]
     0       -82.217       1.000
   ...
    21        -4.143       1.000
    22        -3.979       1.000
    23        -3.823       1.000
    24        -3.795       1.000
    25        -3.533       1.000
    26        -3.502       1.000
    27        -2.383       1.000
    28        -2.106       1.000
    29        -0.352       0.000
    30        -0.211       0.000
    31        -0.160       0.000
    32         0.351       0.000
    33         0.572       0.000
    34         1.750       0.000
    35         2.592       0.000
    36         3.676       0.000
   ...
    41         5.094       0.000
(only showing first 3 out of 121 k-points)

Gap: 0.922 eV
Transition (v -> c):
  (s=0, k=60, n=28, [0.00, 0.00, 0.00]) -> (s=0, k=115, n=29, [0.45, 0.00, 0.00])
# Writing to Band/gsq-93.gpw (mode='')

