#  __  _  _
# | _ |_)|_||  |
# |__||  | ||/\| - 24.1.0

User:   s194113@n-62-29-21
Date:   Sat Apr 27 15:56:35 2024
Arch:   x86_64
Pid:    5028
CWD:    /work3/s194113/10302/10302_NM/MnI2
Python: 3.8.5
gpaw:   /zhome/87/8/147075/venv-name/gpaw/gpaw (10808453a8)
_gpaw:  /zhome/87/8/147075/venv-name/gpaw/
        _gpaw.cpython-38-x86_64-linux-gnu.so (10808453a8)
ase:    /zhome/87/8/147075/venv-name/ase/ase (version 3.23.0b1-c36115a2db)
numpy:  /zhome/87/8/147075/venv-name/lib/python3.8/site-packages/numpy (version 1.24.4)
scipy:  /zhome/87/8/147075/venv-name/lib/python3.8/site-packages/scipy (version 1.10.1)
libxc:  4.3.4
units:  Angstrom and eV
cores: 12
OpenMP: False
OMP_NUM_THREADS: 1

---
input parameters:
  kpts: 
    density: 6.0
    gamma: True
  magmoms: [[4.4079912, 0, 0], [0.08032672, 0, 0], [0.08032672, 0, 0]]
  mixer: 
    backend: 'pulay'
    beta: 0.05
    method: 'sum'
    nmaxold: 5
    weight: 100
  mode: 
    name: 'pw'
    ecut: 600.0
    qspiral: array([0.08527132, 0.08527132, 0.        ])
  parallel: 
    kpt: None
    domain: 1
    band: 1
    order: 'kdb'
    stridebands: False
    augment_grids: False
    sl_auto: False
    sl_default: None
    sl_diagonalize: None
    sl_inverse_cholesky: None
    sl_lcao: None
    sl_lrtddft: None
    use_elpa: False
    elpasolver: '2stage'
    buffer_size: None
    gpu: False
  symmetry: 
    point_group: False
    time_reversal: False
  xc: 
    name: 'LDA'

#                        
#                        
#                        
#                        
#              I         
#                        
#                        
#        Mn              
#          I             
#                        
#                        
#                        
#                        
#                        

atoms: [  # symbols, positions [Ang] and initial magnetic moments
  [ Mn, [   0.000000,    0.000000,    7.649535], [ 4.408,  0.000,  0.000]], # 0
  [  I, [   2.082858,    1.202539,    9.299069], [ 0.080,  0.000,  0.000]], # 1
  [  I, [   0.000000,    2.405077,    6.000000], [ 0.080,  0.000,  0.000]]] # 2

cell: [  # Ang
#     x            y            z
  [   4.165716,    0.000000,    0.000000],
  [  -2.082858,    3.607616,    0.000000],
  [   0.000000,    0.000000,   15.299069]]

periodic: [True      , True      , False     ]
lengths:  [  4.165716,   4.165716,  15.299069]  # Ang
angles:   [ 90.000000,  90.000000, 120.000000]

symmetry:
  number of symmetries: 1
  rotations: [
    [[ 1,  0,  0], [ 0,  1,  0], [ 0,  0,  1]]]

bz sampling:
  number of bz points: 121
  number of ibz points: 121
  monkhorst-pack size: [11, 11, 1]
  monkhorst-pack shift: [0, 0, 0]
  points and weights: [
    [[ -0.45454545,  -0.45454545,   0.00000000], 0.00826446],  # 0
    [[ -0.45454545,  -0.36363636,   0.00000000], 0.00826446],  # 1
    [[ -0.45454545,  -0.27272727,   0.00000000], 0.00826446],  # 2
    [[ -0.45454545,  -0.18181818,   0.00000000], 0.00826446],  # 3
    [[ -0.45454545,  -0.09090909,   0.00000000], 0.00826446],  # 4
    [[ -0.45454545,   0.00000000,   0.00000000], 0.00826446],  # 5
    [[ -0.45454545,   0.09090909,   0.00000000], 0.00826446],  # 6
    [[ -0.45454545,   0.18181818,   0.00000000], 0.00826446],  # 7
    [[ -0.45454545,   0.27272727,   0.00000000], 0.00826446],  # 8
    [[ -0.45454545,   0.36363636,   0.00000000], 0.00826446],  # 9
    # ...
    [[  0.45454545,   0.45454545,   0.00000000], 0.00826446]]  # 120

plane wave coefficients: 7719
cutoff: 600.0 eV

spin-components: 4  # (non-collinear spins)
bands: 42
valence electrons: 29.0
spin-degeneracy: 1
dtype: complex128

memory:
    wave functions: 1_248_301_824  # bytes  (104_025_152 per core)

parallelization:
    kpt:    12
    domain: 1
    band:   1

density:
  components: 4
  grid points: [24 24 90]
  charge: 0.0  # |e|

potential:
  grid points: [24 24 90]

species:
  Mn:
    name: Manganese
    id: 0d715a8018be061a6e9ea6f2d364ac92
    Z: 25.0
    valence: 15
    core: 10
    charge: 0.0
    file: /zhome/86/d/1666/PAW/gpaw-setups-0.9.20000/Mn.LDA.gz
    compensation charges: {type: gauss,
                           rc: 0.38,
                           lmax: 2}
    cutoffs: {filter: 2.14,
              core: 0.86}
    valence states:
      #              energy  rcut
      - 3s(2.00)   -85.387   1.275
      - 4s(2.00)    -5.282   1.275
      - 3p(6.00)   -54.493   1.281
      - 4p(0.00)    -1.471   1.281
      - 3d(5.00)    -7.009   1.138
      -  d          20.203   1.138
  
    # Using partial waves for Mn as LCAO basis

  I:
    name: Iodine
    id: b559721c0c096a7b4c8fc0e0f4de5cf4
    Z: 53.0
    valence: 7
    core: 46
    charge: 0.0
    file: /zhome/86/d/1666/PAW/gpaw-setups-0.9.20000/I.LDA.gz
    compensation charges: {type: gauss,
                           rc: 0.37,
                           lmax: 2}
    cutoffs: {filter: 2.06,
              core: 2.90}
    valence states:
      #              energy  rcut
      - 5s(2.00)   -17.626   1.164
      - 5p(5.00)    -7.241   1.164
      -  s           9.585   1.164
      -  p          19.970   1.164
      -  d           0.000   1.164
  
    # Using partial waves for I as LCAO basis

Reference energy: -418222.442431  # eV

eigensolver:
  name: 'Davidson'
  niter: 2
  converge_bands: 'occupied'
Density mixing:
  Method: sum
  Backend: pulay
  Linear mixing parameter: 0.05
  old densities: 5
  Damping of long wavelength oscillations: 100
occupation numbers:
  Fermi-Dirac:
    width: 0.1000  # eV
  

poisson solver:
  ecut: 4800.0  # eV

xc functional:
  name: None

convergence criteria:
- Maximum [total energy] change in last 3 cyles: 0.0005 eV / valence electron
- Maximum integral of absolute [dens]ity change: 0.0001 electrons / valence electron
- Maximum integral of absolute [eigenst]ate change: 4e-08 eV^2 / valence electron
maximum number of iterations: 333

#      iter     time        total  log10-change:
#                          energy   eigst   dens
# iter:   1 15:57:00   -15.190643                  +4.6,+0.0,+0.0
# iter:   2 15:57:15   -15.188179   -0.71  -1.49   +4.7,-0.0,+0.0
# iter:   3 15:57:31   -15.117176   -1.16  -1.51   +4.7,+0.0,+0.0
# iter:   4 15:57:46   -15.124961   -1.45  -1.59   +4.8,+0.0,+0.0
# iter:   5 15:58:01   -15.168501   -1.72  -1.79   +4.9,+0.0,+0.0
# iter:   6 15:58:17   -15.129798   -1.89  -2.28   +4.9,+0.0,+0.0
# iter:   7 15:58:32   -15.131317   -2.23  -2.29   +4.9,+0.0,+0.0
# iter:   8 15:58:48   -15.153260   -2.42  -2.70   +4.9,+0.0,+0.0
# iter:   9 15:59:03   -15.135276   -2.78  -2.36   +4.9,+0.0,+0.0
# iter:  10 15:59:19   -15.127507   -2.70  -2.63   +4.9,+0.0,+0.0
# iter:  11 15:59:34   -15.127938c  -3.31  -3.47   +4.9,+0.0,+0.0
# iter:  12 15:59:49   -15.128546c  -3.41  -3.48   +4.9,+0.0,-0.0
# iter:  13 16:00:04   -15.128370c  -3.76  -3.15   +4.9,+0.0,-0.0
# iter:  14 16:00:20   -15.128256c  -3.93  -3.18   +4.9,+0.0,-0.0
# iter:  15 16:00:35   -15.128307c  -4.10  -3.24   +4.9,+0.0,-0.0
# iter:  16 16:00:50   -15.127938c  -3.98  -3.22   +4.9,+0.0,-0.0
# iter:  17 16:01:05   -15.127961c  -4.39  -3.72   +4.9,+0.0,-0.0
# iter:  18 16:01:21   -15.128009c  -4.50  -3.73   +4.9,+0.0,-0.0
# iter:  19 16:01:36   -15.128004c  -4.74  -3.65   +4.9,+0.0,-0.0
# iter:  20 16:01:52   -15.128012c  -4.90  -3.66   +4.9,+0.0,+0.0
# iter:  21 16:02:07   -15.128025c  -5.05  -3.62   +4.9,+0.0,-0.0
# iter:  22 16:02:22   -15.128051c  -5.19  -3.57   +4.9,+0.0,-0.0
# iter:  23 16:02:37   -15.128034c  -5.35  -3.51   +4.9,+0.0,-0.0
# iter:  24 16:02:53   -15.127982c  -5.19  -3.56   +4.9,+0.0,-0.0
# iter:  25 16:03:08   -15.127980c  -5.53  -3.79   +4.9,+0.0,-0.0
# iter:  26 16:03:24   -15.127969c  -5.68  -3.83   +4.9,+0.0,-0.0
# iter:  27 16:03:39   -15.127972c  -5.61  -4.03c  +4.9,+0.0,-0.0
# iter:  28 16:03:54   -15.127973c  -6.02  -4.49c  +4.9,+0.0,-0.0
# iter:  29 16:04:09   -15.127972c  -6.20  -4.57c  +4.9,+0.0,-0.0
# iter:  30 16:04:25   -15.127974c  -6.33  -4.63c  +4.9,+0.0,-0.0
# iter:  31 16:04:40   -15.127973c  -6.52  -4.73c  +4.9,+0.0,-0.0
# iter:  32 16:04:55   -15.127973c  -6.68  -4.77c  +4.9,+0.0,-0.0
# iter:  33 16:05:10   -15.127974c  -6.79  -4.84c  +4.9,+0.0,-0.0
# iter:  34 16:05:26   -15.127974c  -6.98  -5.10c  +4.9,+0.0,-0.0
# iter:  35 16:05:41   -15.127974c  -7.13  -5.38c  +4.9,+0.0,-0.0
# iter:  36 16:05:56   -15.127974c  -7.27  -5.39c  +4.9,+0.0,-0.0
# iter:  37 16:06:12   -15.127974c  -7.41c -5.45c  +4.9,+0.0,-0.0
scf_steps: 37
energies:  # eV
  coulomb:         -12.882328
  zero:              0.092217
  xc:              -17.221734
  external:          0.000000
  kinetic:          14.884747
  spinorbit:         0.000000
  entropy:          -0.001752
  total:           -15.128850
  extrapolated:    -15.127974

dipole moment: [-5.580917, -9.666431, -13.846260]  # |e|*Ang

total magnetic moment: [4.903278, 0.011599, -0.000000]

local magnetic moments: [
  [ 4.352098, -0.000358, -0.000000],  # Mn 0
  [ 0.064069, -0.038045,  0.000000],  # I  1
  [ 0.064069, -0.038046, -0.000000]]  # I  2


Fermi level: -1.259 eV

kpt = [-0.455, -0.455, 0.000], weight = 0.008:
  Band      eig [eV]   occ [0-1]
     0       -82.208       1.000
   ...
    21        -3.950       1.000
    22        -3.854       1.000
    23        -3.805       1.000
    24        -3.764       1.000
    25        -3.673       1.000
    26        -3.597       1.000
    27        -2.069       1.000
    28        -2.042       1.000
    29        -0.634       0.002
    30        -0.161       0.000
    31        -0.156       0.000
    32         0.510       0.000
    33         0.652       0.000
    34         1.196       0.000
    35         2.168       0.000
    36         2.887       0.000
   ...
    41         4.745       0.000

kpt = [-0.455, -0.364, 0.000], weight = 0.008:
  Band      eig [eV]   occ [0-1]
     0       -82.208       1.000
   ...
    21        -4.025       1.000
    22        -3.937       1.000
    23        -3.870       1.000
    24        -3.738       1.000
    25        -3.582       1.000
    26        -3.535       1.000
    27        -2.213       1.000
    28        -2.097       1.000
    29        -0.480       0.000
    30        -0.184       0.000
    31        -0.153       0.000
    32         0.434       0.000
    33         0.593       0.000
    34         1.444       0.000
    35         2.398       0.000
    36         3.263       0.000
   ...
    41         4.901       0.000

kpt = [-0.455, -0.273, 0.000], weight = 0.008:
  Band      eig [eV]   occ [0-1]
     0       -82.208       1.000
   ...
    21        -4.133       1.000
    22        -3.969       1.000
    23        -3.819       1.000
    24        -3.778       1.000
    25        -3.518       1.000
    26        -3.492       1.000
    27        -2.340       1.000
    28        -2.112       1.000
    29        -0.346       0.000
    30        -0.229       0.000
    31        -0.156       0.000
    32         0.370       0.000
    33         0.566       0.000
    34         1.709       0.000
    35         2.507       0.000
    36         3.706       0.000
   ...
    41         5.055       0.000
(only showing first 3 out of 121 k-points)

Gap: 0.960 eV
Transition (v -> c):
  (s=0, k=60, n=28, [0.00, 0.00, 0.00]) -> (s=0, k=5, n=29, [-0.45, 0.00, 0.00])
# Writing to Band/gsq-89.gpw (mode='')

---

timing:  # [seconds]
  Total: 577.830  # ━━━━━━━━━━━━━━━━━━━━━━━━━━━━━━━━━━━━━━━━━━━━━━━━━━━━━━━━━
  Init:   10.156  # ━
  SCF:   566.411  # ━━━━━━━━━━━━━━━━━━━━━━━━━━━━━━━━━━━━━━━━━━━━━━━━━━━━━━━━

Max RSS: 2239.043  # MiB
