#  __  _  _
# | _ |_)|_||  |
# |__||  | ||/\| - 24.1.0

User:   s194113@n-62-29-21
Date:   Sat Apr 27 15:27:14 2024
Arch:   x86_64
Pid:    5028
CWD:    /work3/s194113/10302/10302_NM/MnI2
Python: 3.8.5
gpaw:   /zhome/87/8/147075/venv-name/gpaw/gpaw (10808453a8)
_gpaw:  /zhome/87/8/147075/venv-name/gpaw/
        _gpaw.cpython-38-x86_64-linux-gnu.so (10808453a8)
ase:    /zhome/87/8/147075/venv-name/ase/ase (version 3.23.0b1-c36115a2db)
numpy:  /zhome/87/8/147075/venv-name/lib/python3.8/site-packages/numpy (version 1.24.4)
scipy:  /zhome/87/8/147075/venv-name/lib/python3.8/site-packages/scipy (version 1.10.1)
libxc:  4.3.4
units:  Angstrom and eV
cores: 12
OpenMP: False
OMP_NUM_THREADS: 1

---
input parameters:
  kpts: 
    density: 6.0
    gamma: True
  magmoms: [[4.4079912, 0, 0], [0.08032672, 0, 0], [0.08032672, 0, 0]]
  mixer: 
    backend: 'pulay'
    beta: 0.05
    method: 'sum'
    nmaxold: 5
    weight: 100
  mode: 
    name: 'pw'
    ecut: 600.0
    qspiral: array([0.10852713, 0.10852713, 0.        ])
  parallel: 
    kpt: None
    domain: 1
    band: 1
    order: 'kdb'
    stridebands: False
    augment_grids: False
    sl_auto: False
    sl_default: None
    sl_diagonalize: None
    sl_inverse_cholesky: None
    sl_lcao: None
    sl_lrtddft: None
    use_elpa: False
    elpasolver: '2stage'
    buffer_size: None
    gpu: False
  symmetry: 
    point_group: False
    time_reversal: False
  xc: 
    name: 'LDA'

#                        
#                        
#                        
#                        
#              I         
#                        
#                        
#        Mn              
#          I             
#                        
#                        
#                        
#                        
#                        

atoms: [  # symbols, positions [Ang] and initial magnetic moments
  [ Mn, [   0.000000,    0.000000,    7.649535], [ 4.408,  0.000,  0.000]], # 0
  [  I, [   2.082858,    1.202539,    9.299069], [ 0.080,  0.000,  0.000]], # 1
  [  I, [   0.000000,    2.405077,    6.000000], [ 0.080,  0.000,  0.000]]] # 2

cell: [  # Ang
#     x            y            z
  [   4.165716,    0.000000,    0.000000],
  [  -2.082858,    3.607616,    0.000000],
  [   0.000000,    0.000000,   15.299069]]

periodic: [True      , True      , False     ]
lengths:  [  4.165716,   4.165716,  15.299069]  # Ang
angles:   [ 90.000000,  90.000000, 120.000000]

symmetry:
  number of symmetries: 1
  rotations: [
    [[ 1,  0,  0], [ 0,  1,  0], [ 0,  0,  1]]]

bz sampling:
  number of bz points: 121
  number of ibz points: 121
  monkhorst-pack size: [11, 11, 1]
  monkhorst-pack shift: [0, 0, 0]
  points and weights: [
    [[ -0.45454545,  -0.45454545,   0.00000000], 0.00826446],  # 0
    [[ -0.45454545,  -0.36363636,   0.00000000], 0.00826446],  # 1
    [[ -0.45454545,  -0.27272727,   0.00000000], 0.00826446],  # 2
    [[ -0.45454545,  -0.18181818,   0.00000000], 0.00826446],  # 3
    [[ -0.45454545,  -0.09090909,   0.00000000], 0.00826446],  # 4
    [[ -0.45454545,   0.00000000,   0.00000000], 0.00826446],  # 5
    [[ -0.45454545,   0.09090909,   0.00000000], 0.00826446],  # 6
    [[ -0.45454545,   0.18181818,   0.00000000], 0.00826446],  # 7
    [[ -0.45454545,   0.27272727,   0.00000000], 0.00826446],  # 8
    [[ -0.45454545,   0.36363636,   0.00000000], 0.00826446],  # 9
    # ...
    [[  0.45454545,   0.45454545,   0.00000000], 0.00826446]]  # 120

plane wave coefficients: 7719
cutoff: 600.0 eV

spin-components: 4  # (non-collinear spins)
bands: 42
valence electrons: 29.0
spin-degeneracy: 1
dtype: complex128

memory:
    wave functions: 1_248_301_824  # bytes  (104_025_152 per core)

parallelization:
    kpt:    12
    domain: 1
    band:   1

density:
  components: 4
  grid points: [24 24 90]
  charge: 0.0  # |e|

potential:
  grid points: [24 24 90]

species:
  Mn:
    name: Manganese
    id: 0d715a8018be061a6e9ea6f2d364ac92
    Z: 25.0
    valence: 15
    core: 10
    charge: 0.0
    file: /zhome/86/d/1666/PAW/gpaw-setups-0.9.20000/Mn.LDA.gz
    compensation charges: {type: gauss,
                           rc: 0.38,
                           lmax: 2}
    cutoffs: {filter: 2.14,
              core: 0.86}
    valence states:
      #              energy  rcut
      - 3s(2.00)   -85.387   1.275
      - 4s(2.00)    -5.282   1.275
      - 3p(6.00)   -54.493   1.281
      - 4p(0.00)    -1.471   1.281
      - 3d(5.00)    -7.009   1.138
      -  d          20.203   1.138
  
    # Using partial waves for Mn as LCAO basis

  I:
    name: Iodine
    id: b559721c0c096a7b4c8fc0e0f4de5cf4
    Z: 53.0
    valence: 7
    core: 46
    charge: 0.0
    file: /zhome/86/d/1666/PAW/gpaw-setups-0.9.20000/I.LDA.gz
    compensation charges: {type: gauss,
                           rc: 0.37,
                           lmax: 2}
    cutoffs: {filter: 2.06,
              core: 2.90}
    valence states:
      #              energy  rcut
      - 5s(2.00)   -17.626   1.164
      - 5p(5.00)    -7.241   1.164
      -  s           9.585   1.164
      -  p          19.970   1.164
      -  d           0.000   1.164
  
    # Using partial waves for I as LCAO basis

Reference energy: -418222.442431  # eV

eigensolver:
  name: 'Davidson'
  niter: 2
  converge_bands: 'occupied'
Density mixing:
  Method: sum
  Backend: pulay
  Linear mixing parameter: 0.05
  old densities: 5
  Damping of long wavelength oscillations: 100
occupation numbers:
  Fermi-Dirac:
    width: 0.1000  # eV
  

poisson solver:
  ecut: 4800.0  # eV

xc functional:
  name: None

convergence criteria:
- Maximum [total energy] change in last 3 cyles: 0.0005 eV / valence electron
- Maximum integral of absolute [dens]ity change: 0.0001 electrons / valence electron
- Maximum integral of absolute [eigenst]ate change: 4e-08 eV^2 / valence electron
maximum number of iterations: 333

#      iter     time        total  log10-change:
#                          energy   eigst   dens
# iter:   1 15:27:39   -15.175164                  +4.6,+0.0,+0.0
# iter:   2 15:27:54   -15.190325   -0.66  -1.49   +4.6,-0.0,-0.0
# iter:   3 15:28:10   -15.123083   -1.14  -1.52   +4.6,+0.0,+0.0
# iter:   4 15:28:25   -15.131466   -1.40  -1.58   +4.7,+0.0,+0.0
# iter:   5 15:28:40   -15.178401   -1.69  -1.79   +4.8,+0.0,+0.0
# iter:   6 15:28:56   -15.141910   -1.98  -2.26   +4.9,+0.0,+0.0
# iter:   7 15:29:11   -15.144871   -1.93  -2.29   +4.9,+0.0,+0.0
# iter:   8 15:29:26   -15.131538c  -2.53  -2.49   +4.8,+0.0,+0.0
# iter:   9 15:29:42   -15.132112c  -2.72  -2.83   +4.8,+0.0,+0.0
# iter:  10 15:29:57   -15.131357c  -3.13  -2.75   +4.8,+0.0,+0.0
# iter:  11 15:30:12   -15.133054c  -3.25  -2.77   +4.8,+0.0,+0.0
# iter:  12 15:30:27   -15.132364c  -2.98  -2.82   +4.8,+0.0,+0.0
# iter:  13 15:30:43   -15.131038c  -3.58  -3.01   +4.8,+0.0,+0.0
# iter:  14 15:30:58   -15.131048c  -3.92  -3.43   +4.8,+0.0,+0.0
# iter:  15 15:31:13   -15.131138c  -4.08  -3.52   +4.8,+0.0,+0.0
# iter:  16 15:31:28   -15.131072c  -4.17  -3.49   +4.9,+0.0,+0.0
# iter:  17 15:31:44   -15.131092c  -4.41  -4.04c  +4.9,+0.0,+0.0
# iter:  18 15:31:59   -15.131089c  -4.59  -4.13c  +4.9,+0.0,+0.0
# iter:  19 15:32:14   -15.131078c  -4.72  -4.15c  +4.9,+0.0,+0.0
# iter:  20 15:32:29   -15.131078c  -4.91  -4.07c  +4.9,+0.0,+0.0
# iter:  21 15:32:44   -15.131077c  -5.07  -4.25c  +4.9,+0.0,+0.0
# iter:  22 15:33:00   -15.131082c  -5.20  -4.18c  +4.9,+0.0,+0.0
# iter:  23 15:33:15   -15.131079c  -5.37  -4.27c  +4.9,+0.0,+0.0
# iter:  24 15:33:30   -15.131079c  -5.54  -4.34c  +4.9,+0.0,+0.0
# iter:  25 15:33:45   -15.131081c  -5.68  -4.44c  +4.9,+0.0,+0.0
# iter:  26 15:34:01   -15.131079c  -5.83  -4.51c  +4.9,+0.0,+0.0
# iter:  27 15:34:16   -15.131079c  -5.99  -4.61c  +4.9,+0.0,-0.0
# iter:  28 15:34:31   -15.131080c  -6.11  -4.67c  +4.9,+0.0,-0.0
# iter:  29 15:34:46   -15.131079c  -6.29  -4.93c  +4.9,+0.0,+0.0
# iter:  30 15:35:02   -15.131080c  -6.44  -4.94c  +4.9,+0.0,-0.0
# iter:  31 15:35:17   -15.131080c  -6.57  -5.04c  +4.9,+0.0,-0.0
# iter:  32 15:35:32   -15.131080c  -6.71  -5.08c  +4.9,+0.0,-0.0
# iter:  33 15:35:47   -15.131080c  -6.85  -5.13c  +4.9,+0.0,-0.0
# iter:  34 15:36:03   -15.131079c  -6.99  -5.20c  +4.9,+0.0,-0.0
# iter:  35 15:36:18   -15.131080c  -7.14  -5.42c  +4.9,+0.0,-0.0
# iter:  36 15:36:33   -15.131080c  -7.27  -5.55c  +4.9,+0.0,-0.0
# iter:  37 15:36:48   -15.131080c  -7.41c -5.61c  +4.9,+0.0,-0.0
scf_steps: 37
energies:  # eV
  coulomb:         -12.791420
  zero:              0.092360
  xc:              -17.205865
  external:          0.000000
  kinetic:          14.774604
  spinorbit:         0.000000
  entropy:          -0.001517
  total:           -15.131838
  extrapolated:    -15.131080

dipole moment: [-5.505991, -9.536655, -13.454122]  # |e|*Ang

total magnetic moment: [4.853105, 0.013131, -0.000000]

local magnetic moments: [
  [ 4.347216, -0.000434, -0.000000],  # Mn 0
  [ 0.053072, -0.043095, -0.000000],  # I  1
  [ 0.053072, -0.043095,  0.000000]]  # I  2


Fermi level: -1.259 eV

kpt = [-0.455, -0.455, 0.000], weight = 0.008:
  Band      eig [eV]   occ [0-1]
     0       -82.201       1.000
   ...
    21        -3.968       1.000
    22        -3.867       1.000
    23        -3.851       1.000
    24        -3.713       1.000
    25        -3.658       1.000
    26        -3.589       1.000
    27        -2.078       1.000
    28        -2.058       1.000
    29        -0.609       0.002
    30        -0.165       0.000
    31        -0.152       0.000
    32         0.501       0.000
    33         0.640       0.000
    34         1.232       0.000
    35         2.228       0.000
    36         2.904       0.000
   ...
    41         4.920       0.000

kpt = [-0.455, -0.364, 0.000], weight = 0.008:
  Band      eig [eV]   occ [0-1]
     0       -82.201       1.000
   ...
    21        -4.000       1.000
    22        -3.908       1.000
    23        -3.879       1.000
    24        -3.738       1.000
    25        -3.573       1.000
    26        -3.524       1.000
    27        -2.192       1.000
    28        -2.093       1.000
    29        -0.486       0.000
    30        -0.191       0.000
    31        -0.149       0.000
    32         0.457       0.000
    33         0.582       0.000
    34         1.399       0.000
    35         2.383       0.000
    36         3.131       0.000
   ...
    41         5.018       0.000

kpt = [-0.455, -0.273, 0.000], weight = 0.008:
  Band      eig [eV]   occ [0-1]
     0       -82.201       1.000
   ...
    21        -4.124       1.000
    22        -3.949       1.000
    23        -3.821       1.000
    24        -3.765       1.000
    25        -3.498       1.000
    26        -3.484       1.000
    27        -2.304       1.000
    28        -2.114       1.000
    29        -0.343       0.000
    30        -0.246       0.000
    31        -0.153       0.000
    32         0.387       0.000
    33         0.561       0.000
    34         1.670       0.000
    35         2.433       0.000
    36         3.677       0.000
   ...
    41         4.944       0.000
(only showing first 3 out of 121 k-points)

Gap: 1.002 eV
Transition (v -> c):
  (s=0, k=60, n=28, [0.00, 0.00, 0.00]) -> (s=0, k=5, n=29, [-0.45, 0.00, 0.00])
# Writing to Band/gsq-86.gpw (mode='')

---

timing:  # [seconds]
  Total: 574.723  # ━━━━━━━━━━━━━━━━━━━━━━━━━━━━━━━━━━━━━━━━━━━━━━━━━━━━━━━━━
  Init:   10.217  # ━
  SCF:   564.218  # ━━━━━━━━━━━━━━━━━━━━━━━━━━━━━━━━━━━━━━━━━━━━━━━━━━━━━━━━

Max RSS: 2204.145  # MiB
