#  __  _  _
# | _ |_)|_||  |
# |__||  | ||/\| - 24.1.0

User:   s194113@n-62-29-21
Date:   Sat Apr 27 10:31:43 2024
Arch:   x86_64
Pid:    5028
CWD:    /work3/s194113/10302/10302_NM/MnI2
Python: 3.8.5
gpaw:   /zhome/87/8/147075/venv-name/gpaw/gpaw (10808453a8)
_gpaw:  /zhome/87/8/147075/venv-name/gpaw/
        _gpaw.cpython-38-x86_64-linux-gnu.so (10808453a8)
ase:    /zhome/87/8/147075/venv-name/ase/ase (version 3.23.0b1-c36115a2db)
numpy:  /zhome/87/8/147075/venv-name/lib/python3.8/site-packages/numpy (version 1.24.4)
scipy:  /zhome/87/8/147075/venv-name/lib/python3.8/site-packages/scipy (version 1.10.1)
libxc:  4.3.4
units:  Angstrom and eV
cores: 12
OpenMP: False
OMP_NUM_THREADS: 1

---
input parameters:
  kpts: 
    density: 6.0
    gamma: True
  magmoms: [[4.4079912, 0, 0], [0.08032672, 0, 0], [0.08032672, 0, 0]]
  mixer: 
    backend: 'pulay'
    beta: 0.05
    method: 'sum'
    nmaxold: 5
    weight: 100
  mode: 
    name: 'pw'
    ecut: 600.0
    qspiral: array([0.3255814, 0.3255814, 0.       ])
  parallel: 
    kpt: None
    domain: 1
    band: 1
    order: 'kdb'
    stridebands: False
    augment_grids: False
    sl_auto: False
    sl_default: None
    sl_diagonalize: None
    sl_inverse_cholesky: None
    sl_lcao: None
    sl_lrtddft: None
    use_elpa: False
    elpasolver: '2stage'
    buffer_size: None
    gpu: False
  symmetry: 
    point_group: False
    time_reversal: False
  xc: 
    name: 'LDA'

#                        
#                        
#                        
#                        
#              I         
#                        
#                        
#        Mn              
#          I             
#                        
#                        
#                        
#                        
#                        

atoms: [  # symbols, positions [Ang] and initial magnetic moments
  [ Mn, [   0.000000,    0.000000,    7.649535], [ 4.408,  0.000,  0.000]], # 0
  [  I, [   2.082858,    1.202539,    9.299069], [ 0.080,  0.000,  0.000]], # 1
  [  I, [   0.000000,    2.405077,    6.000000], [ 0.080,  0.000,  0.000]]] # 2

cell: [  # Ang
#     x            y            z
  [   4.165716,    0.000000,    0.000000],
  [  -2.082858,    3.607616,    0.000000],
  [   0.000000,    0.000000,   15.299069]]

periodic: [True      , True      , False     ]
lengths:  [  4.165716,   4.165716,  15.299069]  # Ang
angles:   [ 90.000000,  90.000000, 120.000000]

symmetry:
  number of symmetries: 1
  rotations: [
    [[ 1,  0,  0], [ 0,  1,  0], [ 0,  0,  1]]]

bz sampling:
  number of bz points: 121
  number of ibz points: 121
  monkhorst-pack size: [11, 11, 1]
  monkhorst-pack shift: [0, 0, 0]
  points and weights: [
    [[ -0.45454545,  -0.45454545,   0.00000000], 0.00826446],  # 0
    [[ -0.45454545,  -0.36363636,   0.00000000], 0.00826446],  # 1
    [[ -0.45454545,  -0.27272727,   0.00000000], 0.00826446],  # 2
    [[ -0.45454545,  -0.18181818,   0.00000000], 0.00826446],  # 3
    [[ -0.45454545,  -0.09090909,   0.00000000], 0.00826446],  # 4
    [[ -0.45454545,   0.00000000,   0.00000000], 0.00826446],  # 5
    [[ -0.45454545,   0.09090909,   0.00000000], 0.00826446],  # 6
    [[ -0.45454545,   0.18181818,   0.00000000], 0.00826446],  # 7
    [[ -0.45454545,   0.27272727,   0.00000000], 0.00826446],  # 8
    [[ -0.45454545,   0.36363636,   0.00000000], 0.00826446],  # 9
    # ...
    [[  0.45454545,   0.45454545,   0.00000000], 0.00826446]]  # 120

plane wave coefficients: 7719
cutoff: 600.0 eV

spin-components: 4  # (non-collinear spins)
bands: 42
valence electrons: 29.0
spin-degeneracy: 1
dtype: complex128

memory:
    wave functions: 1_248_301_824  # bytes  (104_025_152 per core)

parallelization:
    kpt:    12
    domain: 1
    band:   1

density:
  components: 4
  grid points: [24 24 90]
  charge: 0.0  # |e|

potential:
  grid points: [24 24 90]

species:
  Mn:
    name: Manganese
    id: 0d715a8018be061a6e9ea6f2d364ac92
    Z: 25.0
    valence: 15
    core: 10
    charge: 0.0
    file: /zhome/86/d/1666/PAW/gpaw-setups-0.9.20000/Mn.LDA.gz
    compensation charges: {type: gauss,
                           rc: 0.38,
                           lmax: 2}
    cutoffs: {filter: 2.14,
              core: 0.86}
    valence states:
      #              energy  rcut
      - 3s(2.00)   -85.387   1.275
      - 4s(2.00)    -5.282   1.275
      - 3p(6.00)   -54.493   1.281
      - 4p(0.00)    -1.471   1.281
      - 3d(5.00)    -7.009   1.138
      -  d          20.203   1.138
  
    # Using partial waves for Mn as LCAO basis

  I:
    name: Iodine
    id: b559721c0c096a7b4c8fc0e0f4de5cf4
    Z: 53.0
    valence: 7
    core: 46
    charge: 0.0
    file: /zhome/86/d/1666/PAW/gpaw-setups-0.9.20000/I.LDA.gz
    compensation charges: {type: gauss,
                           rc: 0.37,
                           lmax: 2}
    cutoffs: {filter: 2.06,
              core: 2.90}
    valence states:
      #              energy  rcut
      - 5s(2.00)   -17.626   1.164
      - 5p(5.00)    -7.241   1.164
      -  s           9.585   1.164
      -  p          19.970   1.164
      -  d           0.000   1.164
  
    # Using partial waves for I as LCAO basis

Reference energy: -418222.442431  # eV

eigensolver:
  name: 'Davidson'
  niter: 2
  converge_bands: 'occupied'
Density mixing:
  Method: sum
  Backend: pulay
  Linear mixing parameter: 0.05
  old densities: 5
  Damping of long wavelength oscillations: 100
occupation numbers:
  Fermi-Dirac:
    width: 0.1000  # eV
  

poisson solver:
  ecut: 4800.0  # eV

xc functional:
  name: None

convergence criteria:
- Maximum [total energy] change in last 3 cyles: 0.0005 eV / valence electron
- Maximum integral of absolute [dens]ity change: 0.0001 electrons / valence electron
- Maximum integral of absolute [eigenst]ate change: 4e-08 eV^2 / valence electron
maximum number of iterations: 333

#      iter     time        total  log10-change:
#                          energy   eigst   dens
# iter:   1 10:32:08   -14.638140                  +4.6,+0.0,+0.0
# iter:   2 10:32:24   -15.137692   -0.07  -1.49   +4.1,-0.0,+0.0
# iter:   3 10:32:39   -15.137633   -0.70  -1.52   +4.0,-0.0,+0.0
# iter:   4 10:32:55   -15.156795   -1.02  -1.56   +4.1,-0.0,-0.0
# iter:   5 10:33:10   -15.255515   -1.31  -1.75   +4.3,-0.0,-0.0
# iter:   6 10:33:26   -15.156435   -1.57  -2.14   +4.4,-0.0,-0.0
# iter:   7 10:33:41   -15.149394   -1.68  -2.30   +4.3,+0.0,-0.0
# iter:   8 10:33:57   -15.141334   -2.11  -2.22   +4.3,+0.0,-0.0
# iter:   9 10:34:13   -15.142786c  -2.37  -2.95   +4.3,+0.0,-0.0
# iter:  10 10:34:28   -15.141933c  -2.58  -2.99   +4.3,+0.0,-0.0
# iter:  11 10:34:44   -15.141718c  -2.78  -3.07   +4.3,+0.0,-0.0
# iter:  12 10:34:59   -15.141776c  -2.97  -3.28   +4.3,+0.0,-0.0
# iter:  13 10:35:14   -15.141865c  -3.15  -3.48   +4.3,+0.0,-0.0
# iter:  14 10:35:30   -15.141883c  -3.34  -3.53   +4.3,+0.0,-0.0
# iter:  15 10:35:45   -15.141896c  -3.52  -3.56   +4.3,+0.0,-0.0
# iter:  16 10:36:01   -15.141897c  -3.69  -3.76   +4.3,+0.0,-0.0
# iter:  17 10:36:16   -15.141898c  -3.86  -3.81   +4.3,+0.0,-0.0
# iter:  18 10:36:31   -15.141897c  -4.01  -3.85   +4.3,+0.0,-0.0
# iter:  19 10:36:46   -15.141896c  -4.19  -4.13c  +4.3,+0.0,-0.0
# iter:  20 10:37:02   -15.141898c  -4.35  -4.37c  +4.3,+0.0,-0.0
# iter:  21 10:37:17   -15.141898c  -4.51  -4.35c  +4.3,+0.0,-0.0
# iter:  22 10:37:32   -15.141899c  -4.66  -4.28c  +4.3,+0.0,-0.0
# iter:  23 10:37:47   -15.141901c  -4.80  -4.41c  +4.3,+0.0,-0.0
# iter:  24 10:38:03   -15.141902c  -4.95  -4.69c  +4.3,+0.0,-0.0
# iter:  25 10:38:18   -15.141903c  -5.09  -4.83c  +4.3,+0.0,-0.0
# iter:  26 10:38:33   -15.141903c  -5.23  -5.00c  +4.3,+0.0,-0.0
# iter:  27 10:38:48   -15.141903c  -5.37  -4.98c  +4.3,+0.0,-0.0
# iter:  28 10:39:03   -15.141903c  -5.50  -5.01c  +4.3,+0.0,-0.0
# iter:  29 10:39:19   -15.141903c  -5.63  -5.06c  +4.3,+0.0,-0.0
# iter:  30 10:39:34   -15.141903c  -5.77  -5.12c  +4.3,+0.0,-0.0
# iter:  31 10:39:49   -15.141903c  -5.90  -5.13c  +4.3,+0.0,-0.0
# iter:  32 10:40:04   -15.141903c  -6.03  -5.35c  +4.3,+0.0,-0.0
# iter:  33 10:40:19   -15.141903c  -6.15  -5.45c  +4.3,+0.0,-0.0
# iter:  34 10:40:34   -15.141903c  -6.28  -5.54c  +4.3,+0.0,-0.0
# iter:  35 10:40:49   -15.141903c  -6.41  -5.54c  +4.3,+0.0,-0.0
# iter:  36 10:41:05   -15.141903c  -6.54  -5.60c  +4.3,+0.0,-0.0
# iter:  37 10:41:20   -15.141903c  -6.67  -5.63c  +4.3,+0.0,-0.0
# iter:  38 10:41:35   -15.141903c  -6.78  -5.66c  +4.3,+0.0,-0.0
# iter:  39 10:41:50   -15.141903c  -6.91  -5.72c  +4.3,+0.0,-0.0
# iter:  40 10:42:05   -15.141903c  -7.03  -5.76c  +4.3,+0.0,-0.0
# iter:  41 10:42:20   -15.141903c  -7.15  -5.81c  +4.3,+0.0,-0.0
# iter:  42 10:42:35   -15.141903c  -7.28  -5.93c  +4.3,+0.0,-0.0
# iter:  43 10:42:50   -15.141903c  -7.39  -6.03c  +4.3,+0.0,-0.0
# iter:  44 10:43:05   -15.141903c  -7.51c -6.11c  +4.3,+0.0,-0.0
scf_steps: 44
energies:  # eV
  coulomb:         -12.454456
  zero:              0.093391
  xc:              -17.137456
  external:          0.000000
  kinetic:          14.357077
  spinorbit:         0.000000
  entropy:          -0.000918
  total:           -15.142362
  extrapolated:    -15.141903

dipole moment: [-4.722699, -8.179953, -9.220435]  # |e|*Ang

total magnetic moment: [4.305678, 0.000549, -0.000000]

local magnetic moments: [
  [ 4.322242, -0.000007, -0.000000],  # Mn 0
  [-0.000897, -0.001745, -0.000000],  # I  1
  [-0.000898, -0.001745, -0.000000]]  # I  2


Fermi level: -1.215 eV

kpt = [-0.455, -0.455, 0.000], weight = 0.008:
  Band      eig [eV]   occ [0-1]
     0       -82.167       1.000
   ...
    21        -4.281       1.000
    22        -4.049       1.000
    23        -3.730       1.000
    24        -3.678       1.000
    25        -3.576       1.000
    26        -3.544       1.000
    27        -2.238       1.000
    28        -2.196       1.000
    29        -0.314       0.000
    30        -0.190       0.000
    31        -0.149       0.000
    32         0.440       0.000
    33         0.457       0.000
    34         1.793       0.000
    35         2.564       0.000
    36         3.887       0.000
   ...
    41         5.712       0.000

kpt = [-0.455, -0.364, 0.000], weight = 0.008:
  Band      eig [eV]   occ [0-1]
     0       -82.167       1.000
   ...
    21        -4.035       1.000
    22        -4.003       1.000
    23        -3.757       1.000
    24        -3.655       1.000
    25        -3.533       1.000
    26        -3.400       1.000
    27        -2.271       1.000
    28        -2.079       1.000
    29        -0.318       0.000
    30        -0.263       0.000
    31        -0.161       0.000
    32         0.427       0.000
    33         0.516       0.000
    34         1.666       0.000
    35         2.386       0.000
    36         3.562       0.000
   ...
    41         4.713       0.000

kpt = [-0.455, -0.273, 0.000], weight = 0.008:
  Band      eig [eV]   occ [0-1]
     0       -82.167       1.000
   ...
    21        -3.929       1.000
    22        -3.742       1.000
    23        -3.703       1.000
    24        -3.557       1.000
    25        -3.442       1.000
    26        -3.276       1.000
    27        -2.237       1.000
    28        -1.949       0.999
    29        -0.456       0.001
    30        -0.271       0.000
    31        -0.155       0.000
    32         0.433       0.000
    33         0.553       0.000
    34         1.492       0.000
    35         2.162       0.000
    36         3.102       0.000
   ...
    41         4.606       0.000
(only showing first 3 out of 121 k-points)

Gap: 1.427 eV
Transition (v -> c):
  (s=0, k=40, n=28, [-0.18, 0.18, 0.00]) -> (s=0, k=18, n=29, [-0.36, 0.18, 0.00])
# Writing to Band/gsq-58.gpw (mode='')

---

timing:  # [seconds]
  Total: 682.805  # ━━━━━━━━━━━━━━━━━━━━━━━━━━━━━━━━━━━━━━━━━━━━━━━━━━━━━━━━━
  Init:   10.083  # ━
  SCF:   672.348  # ━━━━━━━━━━━━━━━━━━━━━━━━━━━━━━━━━━━━━━━━━━━━━━━━━━━━━━━━

Max RSS: 1682.652  # MiB
