#  __  _  _
# | _ |_)|_||  |
# |__||  | ||/\| - 24.1.0

User:   s194113@n-62-29-21
Date:   Sat Apr 27 16:06:12 2024
Arch:   x86_64
Pid:    5028
CWD:    /work3/s194113/10302/10302_NM/MnI2
Python: 3.8.5
gpaw:   /zhome/87/8/147075/venv-name/gpaw/gpaw (10808453a8)
_gpaw:  /zhome/87/8/147075/venv-name/gpaw/
        _gpaw.cpython-38-x86_64-linux-gnu.so (10808453a8)
ase:    /zhome/87/8/147075/venv-name/ase/ase (version 3.23.0b1-c36115a2db)
numpy:  /zhome/87/8/147075/venv-name/lib/python3.8/site-packages/numpy (version 1.24.4)
scipy:  /zhome/87/8/147075/venv-name/lib/python3.8/site-packages/scipy (version 1.10.1)
libxc:  4.3.4
units:  Angstrom and eV
cores: 12
OpenMP: False
OMP_NUM_THREADS: 1

---
input parameters:
  kpts: 
    density: 6.0
    gamma: True
  magmoms: [[4.4079912, 0, 0], [0.08032672, 0, 0], [0.08032672, 0, 0]]
  mixer: 
    backend: 'pulay'
    beta: 0.05
    method: 'sum'
    nmaxold: 5
    weight: 100
  mode: 
    name: 'pw'
    ecut: 600.0
    qspiral: array([0.07751938, 0.07751938, 0.        ])
  parallel: 
    kpt: None
    domain: 1
    band: 1
    order: 'kdb'
    stridebands: False
    augment_grids: False
    sl_auto: False
    sl_default: None
    sl_diagonalize: None
    sl_inverse_cholesky: None
    sl_lcao: None
    sl_lrtddft: None
    use_elpa: False
    elpasolver: '2stage'
    buffer_size: None
    gpu: False
  symmetry: 
    point_group: False
    time_reversal: False
  xc: 
    name: 'LDA'

#                        
#                        
#                        
#                        
#              I         
#                        
#                        
#        Mn              
#          I             
#                        
#                        
#                        
#                        
#                        

atoms: [  # symbols, positions [Ang] and initial magnetic moments
  [ Mn, [   0.000000,    0.000000,    7.649535], [ 4.408,  0.000,  0.000]], # 0
  [  I, [   2.082858,    1.202539,    9.299069], [ 0.080,  0.000,  0.000]], # 1
  [  I, [   0.000000,    2.405077,    6.000000], [ 0.080,  0.000,  0.000]]] # 2

cell: [  # Ang
#     x            y            z
  [   4.165716,    0.000000,    0.000000],
  [  -2.082858,    3.607616,    0.000000],
  [   0.000000,    0.000000,   15.299069]]

periodic: [True      , True      , False     ]
lengths:  [  4.165716,   4.165716,  15.299069]  # Ang
angles:   [ 90.000000,  90.000000, 120.000000]

symmetry:
  number of symmetries: 1
  rotations: [
    [[ 1,  0,  0], [ 0,  1,  0], [ 0,  0,  1]]]

bz sampling:
  number of bz points: 121
  number of ibz points: 121
  monkhorst-pack size: [11, 11, 1]
  monkhorst-pack shift: [0, 0, 0]
  points and weights: [
    [[ -0.45454545,  -0.45454545,   0.00000000], 0.00826446],  # 0
    [[ -0.45454545,  -0.36363636,   0.00000000], 0.00826446],  # 1
    [[ -0.45454545,  -0.27272727,   0.00000000], 0.00826446],  # 2
    [[ -0.45454545,  -0.18181818,   0.00000000], 0.00826446],  # 3
    [[ -0.45454545,  -0.09090909,   0.00000000], 0.00826446],  # 4
    [[ -0.45454545,   0.00000000,   0.00000000], 0.00826446],  # 5
    [[ -0.45454545,   0.09090909,   0.00000000], 0.00826446],  # 6
    [[ -0.45454545,   0.18181818,   0.00000000], 0.00826446],  # 7
    [[ -0.45454545,   0.27272727,   0.00000000], 0.00826446],  # 8
    [[ -0.45454545,   0.36363636,   0.00000000], 0.00826446],  # 9
    # ...
    [[  0.45454545,   0.45454545,   0.00000000], 0.00826446]]  # 120

plane wave coefficients: 7719
cutoff: 600.0 eV

spin-components: 4  # (non-collinear spins)
bands: 42
valence electrons: 29.0
spin-degeneracy: 1
dtype: complex128

memory:
    wave functions: 1_248_301_824  # bytes  (104_025_152 per core)

parallelization:
    kpt:    12
    domain: 1
    band:   1

density:
  components: 4
  grid points: [24 24 90]
  charge: 0.0  # |e|

potential:
  grid points: [24 24 90]

species:
  Mn:
    name: Manganese
    id: 0d715a8018be061a6e9ea6f2d364ac92
    Z: 25.0
    valence: 15
    core: 10
    charge: 0.0
    file: /zhome/86/d/1666/PAW/gpaw-setups-0.9.20000/Mn.LDA.gz
    compensation charges: {type: gauss,
                           rc: 0.38,
                           lmax: 2}
    cutoffs: {filter: 2.14,
              core: 0.86}
    valence states:
      #              energy  rcut
      - 3s(2.00)   -85.387   1.275
      - 4s(2.00)    -5.282   1.275
      - 3p(6.00)   -54.493   1.281
      - 4p(0.00)    -1.471   1.281
      - 3d(5.00)    -7.009   1.138
      -  d          20.203   1.138
  
    # Using partial waves for Mn as LCAO basis

  I:
    name: Iodine
    id: b559721c0c096a7b4c8fc0e0f4de5cf4
    Z: 53.0
    valence: 7
    core: 46
    charge: 0.0
    file: /zhome/86/d/1666/PAW/gpaw-setups-0.9.20000/I.LDA.gz
    compensation charges: {type: gauss,
                           rc: 0.37,
                           lmax: 2}
    cutoffs: {filter: 2.06,
              core: 2.90}
    valence states:
      #              energy  rcut
      - 5s(2.00)   -17.626   1.164
      - 5p(5.00)    -7.241   1.164
      -  s           9.585   1.164
      -  p          19.970   1.164
      -  d           0.000   1.164
  
    # Using partial waves for I as LCAO basis

Reference energy: -418222.442431  # eV

eigensolver:
  name: 'Davidson'
  niter: 2
  converge_bands: 'occupied'
Density mixing:
  Method: sum
  Backend: pulay
  Linear mixing parameter: 0.05
  old densities: 5
  Damping of long wavelength oscillations: 100
occupation numbers:
  Fermi-Dirac:
    width: 0.1000  # eV
  

poisson solver:
  ecut: 4800.0  # eV

xc functional:
  name: None

convergence criteria:
- Maximum [total energy] change in last 3 cyles: 0.0005 eV / valence electron
- Maximum integral of absolute [dens]ity change: 0.0001 electrons / valence electron
- Maximum integral of absolute [eigenst]ate change: 4e-08 eV^2 / valence electron
maximum number of iterations: 333

#      iter     time        total  log10-change:
#                          energy   eigst   dens
# iter:   1 16:06:37   -15.194580                  +4.6,+0.0,+0.0
# iter:   2 16:06:52   -15.187302   -0.73  -1.49   +4.7,-0.0,+0.0
# iter:   3 16:07:08   -15.115112   -1.17  -1.51   +4.7,+0.0,+0.0
# iter:   4 16:07:23   -15.123108   -1.47  -1.59   +4.8,+0.0,+0.0
# iter:   5 16:07:39   -15.165412   -1.73  -1.79   +4.9,+0.0,+0.0
# iter:   6 16:07:54   -15.128416   -1.90  -2.28   +4.9,+0.0,+0.0
# iter:   7 16:08:10   -15.129027   -2.25  -2.32   +4.9,+0.0,+0.0
# iter:   8 16:08:25   -15.155990   -2.35  -2.74   +4.9,+0.0,+0.0
# iter:   9 16:08:40   -15.134008   -2.75  -2.33   +4.9,+0.0,+0.0
# iter:  10 16:08:55   -15.126458   -2.69  -2.62   +4.9,+0.0,+0.0
# iter:  11 16:09:11   -15.126900c  -3.31  -3.47   +4.9,+0.0,+0.0
# iter:  12 16:09:26   -15.127463c  -3.43  -3.48   +4.9,+0.0,+0.0
# iter:  13 16:09:41   -15.127349c  -3.78  -3.16   +4.9,+0.0,+0.0
# iter:  14 16:09:56   -15.127420c  -3.96  -3.18   +4.9,+0.0,+0.0
# iter:  15 16:10:12   -15.127354c  -4.12  -3.15   +4.9,+0.0,+0.0
# iter:  16 16:10:27   -15.127080c  -4.23  -3.19   +4.9,+0.0,+0.0
# iter:  17 16:10:42   -15.127036c  -4.42  -3.31   +4.9,+0.0,+0.0
# iter:  18 16:10:57   -15.126909c  -4.44  -3.38   +4.9,+0.0,+0.0
# iter:  19 16:11:13   -15.126906c  -4.70  -3.60   +4.9,+0.0,+0.0
# iter:  20 16:11:28   -15.126935c  -4.82  -3.64   +4.9,+0.0,+0.0
# iter:  21 16:11:43   -15.126929c  -4.96  -3.79   +4.9,+0.0,-0.0
# iter:  22 16:11:58   -15.126931c  -5.19  -4.04c  +4.9,+0.0,-0.0
# iter:  23 16:12:14   -15.126931c  -5.35  -4.07c  +4.9,+0.0,-0.0
# iter:  24 16:12:29   -15.126933c  -5.47  -4.19c  +4.9,+0.0,-0.0
# iter:  25 16:12:44   -15.126950c  -5.48  -4.28c  +4.9,+0.0,-0.0
# iter:  26 16:12:59   -15.126946c  -5.84  -4.15c  +4.9,+0.0,-0.0
# iter:  27 16:13:15   -15.126934c  -5.85  -4.23c  +4.9,+0.0,-0.0
# iter:  28 16:13:30   -15.126934c  -6.17  -4.55c  +4.9,+0.0,-0.0
# iter:  29 16:13:46   -15.126934c  -6.31  -4.61c  +4.9,+0.0,-0.0
# iter:  30 16:14:01   -15.126934c  -6.45  -4.98c  +4.9,+0.0,-0.0
# iter:  31 16:14:16   -15.126934c  -6.59  -5.25c  +4.9,+0.0,-0.0
# iter:  32 16:14:32   -15.126933c  -6.73  -5.36c  +4.9,+0.0,-0.0
# iter:  33 16:14:47   -15.126933c  -6.88  -5.59c  +4.9,+0.0,-0.0
# iter:  34 16:15:02   -15.126933c  -7.02  -5.74c  +4.9,+0.0,-0.0
# iter:  35 16:15:17   -15.126933c  -7.17  -5.88c  +4.9,+0.0,-0.0
# iter:  36 16:15:33   -15.126933c  -7.32  -5.91c  +4.9,+0.0,-0.0
# iter:  37 16:15:48   -15.126933c  -7.46c -6.25c  +4.9,+0.0,-0.0
scf_steps: 37
energies:  # eV
  coulomb:         -12.909849
  zero:              0.092068
  xc:              -17.227177
  external:          0.000000
  kinetic:          14.918944
  spinorbit:         0.000000
  entropy:          -0.001839
  total:           -15.127853
  extrapolated:    -15.126933

dipole moment: [-5.603953, -9.706331, -13.963077]  # |e|*Ang

total magnetic moment: [4.918334, 0.010888, -0.000000]

local magnetic moments: [
  [ 4.353727, -0.000345, -0.000000],  # Mn 0
  [ 0.067457, -0.035734, -0.000000],  # I  1
  [ 0.067457, -0.035734, -0.000000]]  # I  2


Fermi level: -1.259 eV

kpt = [-0.455, -0.455, 0.000], weight = 0.008:
  Band      eig [eV]   occ [0-1]
     0       -82.211       1.000
   ...
    21        -3.944       1.000
    22        -3.851       1.000
    23        -3.791       1.000
    24        -3.783       1.000
    25        -3.676       1.000
    26        -3.600       1.000
    27        -2.067       1.000
    28        -2.037       1.000
    29        -0.641       0.002
    30        -0.160       0.000
    31        -0.157       0.000
    32         0.512       0.000
    33         0.655       0.000
    34         1.187       0.000
    35         2.148       0.000
    36         2.891       0.000
   ...
    41         4.695       0.000

kpt = [-0.455, -0.364, 0.000], weight = 0.008:
  Band      eig [eV]   occ [0-1]
     0       -82.211       1.000
   ...
    21        -4.029       1.000
    22        -3.944       1.000
    23        -3.866       1.000
    24        -3.741       1.000
    25        -3.585       1.000
    26        -3.538       1.000
    27        -2.224       1.000
    28        -2.096       1.000
    29        -0.478       0.000
    30        -0.182       0.000
    31        -0.154       0.000
    32         0.427       0.000
    33         0.596       0.000
    34         1.460       0.000
    35         2.402       0.000
    36         3.311       0.000
   ...
    41         4.865       0.000

kpt = [-0.455, -0.273, 0.000], weight = 0.008:
  Band      eig [eV]   occ [0-1]
     0       -82.211       1.000
   ...
    21        -4.135       1.000
    22        -3.973       1.000
    23        -3.820       1.000
    24        -3.783       1.000
    25        -3.522       1.000
    26        -3.495       1.000
    27        -2.352       1.000
    28        -2.111       1.000
    29        -0.347       0.000
    30        -0.224       0.000
    31        -0.157       0.000
    32         0.364       0.000
    33         0.568       0.000
    34         1.721       0.000
    35         2.530       0.000
    36         3.702       0.000
   ...
    41         5.275       0.000
(only showing first 3 out of 121 k-points)

Gap: 0.949 eV
Transition (v -> c):
  (s=0, k=60, n=28, [0.00, 0.00, 0.00]) -> (s=0, k=115, n=29, [0.45, 0.00, 0.00])
# Writing to Band/gsq-90.gpw (mode='')

