#  __  _  _
# | _ |_)|_||  |
# |__||  | ||/\| - 24.1.0

User:   s194113@n-62-29-21
Date:   Sat Apr 27 10:54:08 2024
Arch:   x86_64
Pid:    5028
CWD:    /work3/s194113/10302/10302_NM/MnI2
Python: 3.8.5
gpaw:   /zhome/87/8/147075/venv-name/gpaw/gpaw (10808453a8)
_gpaw:  /zhome/87/8/147075/venv-name/gpaw/
        _gpaw.cpython-38-x86_64-linux-gnu.so (10808453a8)
ase:    /zhome/87/8/147075/venv-name/ase/ase (version 3.23.0b1-c36115a2db)
numpy:  /zhome/87/8/147075/venv-name/lib/python3.8/site-packages/numpy (version 1.24.4)
scipy:  /zhome/87/8/147075/venv-name/lib/python3.8/site-packages/scipy (version 1.10.1)
libxc:  4.3.4
units:  Angstrom and eV
cores: 12
OpenMP: False
OMP_NUM_THREADS: 1

---
input parameters:
  kpts: 
    density: 6.0
    gamma: True
  magmoms: [[4.4079912, 0, 0], [0.08032672, 0, 0], [0.08032672, 0, 0]]
  mixer: 
    backend: 'pulay'
    beta: 0.05
    method: 'sum'
    nmaxold: 5
    weight: 100
  mode: 
    name: 'pw'
    ecut: 600.0
    qspiral: array([0.31007752, 0.31007752, 0.        ])
  parallel: 
    kpt: None
    domain: 1
    band: 1
    order: 'kdb'
    stridebands: False
    augment_grids: False
    sl_auto: False
    sl_default: None
    sl_diagonalize: None
    sl_inverse_cholesky: None
    sl_lcao: None
    sl_lrtddft: None
    use_elpa: False
    elpasolver: '2stage'
    buffer_size: None
    gpu: False
  symmetry: 
    point_group: False
    time_reversal: False
  xc: 
    name: 'LDA'

#                        
#                        
#                        
#                        
#              I         
#                        
#                        
#        Mn              
#          I             
#                        
#                        
#                        
#                        
#                        

atoms: [  # symbols, positions [Ang] and initial magnetic moments
  [ Mn, [   0.000000,    0.000000,    7.649535], [ 4.408,  0.000,  0.000]], # 0
  [  I, [   2.082858,    1.202539,    9.299069], [ 0.080,  0.000,  0.000]], # 1
  [  I, [   0.000000,    2.405077,    6.000000], [ 0.080,  0.000,  0.000]]] # 2

cell: [  # Ang
#     x            y            z
  [   4.165716,    0.000000,    0.000000],
  [  -2.082858,    3.607616,    0.000000],
  [   0.000000,    0.000000,   15.299069]]

periodic: [True      , True      , False     ]
lengths:  [  4.165716,   4.165716,  15.299069]  # Ang
angles:   [ 90.000000,  90.000000, 120.000000]

symmetry:
  number of symmetries: 1
  rotations: [
    [[ 1,  0,  0], [ 0,  1,  0], [ 0,  0,  1]]]

bz sampling:
  number of bz points: 121
  number of ibz points: 121
  monkhorst-pack size: [11, 11, 1]
  monkhorst-pack shift: [0, 0, 0]
  points and weights: [
    [[ -0.45454545,  -0.45454545,   0.00000000], 0.00826446],  # 0
    [[ -0.45454545,  -0.36363636,   0.00000000], 0.00826446],  # 1
    [[ -0.45454545,  -0.27272727,   0.00000000], 0.00826446],  # 2
    [[ -0.45454545,  -0.18181818,   0.00000000], 0.00826446],  # 3
    [[ -0.45454545,  -0.09090909,   0.00000000], 0.00826446],  # 4
    [[ -0.45454545,   0.00000000,   0.00000000], 0.00826446],  # 5
    [[ -0.45454545,   0.09090909,   0.00000000], 0.00826446],  # 6
    [[ -0.45454545,   0.18181818,   0.00000000], 0.00826446],  # 7
    [[ -0.45454545,   0.27272727,   0.00000000], 0.00826446],  # 8
    [[ -0.45454545,   0.36363636,   0.00000000], 0.00826446],  # 9
    # ...
    [[  0.45454545,   0.45454545,   0.00000000], 0.00826446]]  # 120

plane wave coefficients: 7719
cutoff: 600.0 eV

spin-components: 4  # (non-collinear spins)
bands: 42
valence electrons: 29.0
spin-degeneracy: 1
dtype: complex128

memory:
    wave functions: 1_248_301_824  # bytes  (104_025_152 per core)

parallelization:
    kpt:    12
    domain: 1
    band:   1

density:
  components: 4
  grid points: [24 24 90]
  charge: 0.0  # |e|

potential:
  grid points: [24 24 90]

species:
  Mn:
    name: Manganese
    id: 0d715a8018be061a6e9ea6f2d364ac92
    Z: 25.0
    valence: 15
    core: 10
    charge: 0.0
    file: /zhome/86/d/1666/PAW/gpaw-setups-0.9.20000/Mn.LDA.gz
    compensation charges: {type: gauss,
                           rc: 0.38,
                           lmax: 2}
    cutoffs: {filter: 2.14,
              core: 0.86}
    valence states:
      #              energy  rcut
      - 3s(2.00)   -85.387   1.275
      - 4s(2.00)    -5.282   1.275
      - 3p(6.00)   -54.493   1.281
      - 4p(0.00)    -1.471   1.281
      - 3d(5.00)    -7.009   1.138
      -  d          20.203   1.138
  
    # Using partial waves for Mn as LCAO basis

  I:
    name: Iodine
    id: b559721c0c096a7b4c8fc0e0f4de5cf4
    Z: 53.0
    valence: 7
    core: 46
    charge: 0.0
    file: /zhome/86/d/1666/PAW/gpaw-setups-0.9.20000/I.LDA.gz
    compensation charges: {type: gauss,
                           rc: 0.37,
                           lmax: 2}
    cutoffs: {filter: 2.06,
              core: 2.90}
    valence states:
      #              energy  rcut
      - 5s(2.00)   -17.626   1.164
      - 5p(5.00)    -7.241   1.164
      -  s           9.585   1.164
      -  p          19.970   1.164
      -  d           0.000   1.164
  
    # Using partial waves for I as LCAO basis

Reference energy: -418222.442431  # eV

eigensolver:
  name: 'Davidson'
  niter: 2
  converge_bands: 'occupied'
Density mixing:
  Method: sum
  Backend: pulay
  Linear mixing parameter: 0.05
  old densities: 5
  Damping of long wavelength oscillations: 100
occupation numbers:
  Fermi-Dirac:
    width: 0.1000  # eV
  

poisson solver:
  ecut: 4800.0  # eV

xc functional:
  name: None

convergence criteria:
- Maximum [total energy] change in last 3 cyles: 0.0005 eV / valence electron
- Maximum integral of absolute [dens]ity change: 0.0001 electrons / valence electron
- Maximum integral of absolute [eigenst]ate change: 4e-08 eV^2 / valence electron
maximum number of iterations: 333

#      iter     time        total  log10-change:
#                          energy   eigst   dens
# iter:   1 10:54:33   -14.705493                  +4.6,+0.0,+0.0
# iter:   2 10:54:48   -15.146398   -0.11  -1.49   +4.1,-0.0,+0.0
# iter:   3 10:55:04   -15.138642   -0.73  -1.52   +4.1,-0.0,+0.0
# iter:   4 10:55:19   -15.156632   -1.04  -1.56   +4.2,-0.0,+0.0
# iter:   5 10:55:34   -15.250159   -1.33  -1.75   +4.4,-0.0,+0.0
# iter:   6 10:55:50   -15.158672   -1.61  -2.15   +4.4,+0.0,+0.0
# iter:   7 10:56:05   -15.155651   -1.64  -2.30   +4.4,+0.0,+0.0
# iter:   8 10:56:20   -15.141295   -2.13  -2.19   +4.3,+0.0,-0.0
# iter:   9 10:56:36   -15.141657c  -2.42  -2.94   +4.3,+0.0,+0.0
# iter:  10 10:56:51   -15.142866c  -2.61  -3.06   +4.3,+0.0,+0.0
# iter:  11 10:57:06   -15.141602c  -2.79  -2.93   +4.3,+0.0,-0.0
# iter:  12 10:57:21   -15.141701c  -3.01  -3.40   +4.3,+0.0,-0.0
# iter:  13 10:57:36   -15.141738c  -3.20  -3.49   +4.3,+0.0,+0.0
# iter:  14 10:57:52   -15.141846c  -3.37  -3.53   +4.3,+0.0,+0.0
# iter:  15 10:58:07   -15.141785c  -3.56  -3.55   +4.3,+0.0,+0.0
# iter:  16 10:58:22   -15.141802c  -3.75  -3.66   +4.3,+0.0,+0.0
# iter:  17 10:58:37   -15.141822c  -3.91  -3.74   +4.3,+0.0,+0.0
# iter:  18 10:58:52   -15.141806c  -4.08  -3.94   +4.3,+0.0,+0.0
# iter:  19 10:59:07   -15.141804c  -4.25  -4.13c  +4.3,+0.0,+0.0
# iter:  20 10:59:22   -15.141806c  -4.41  -4.16c  +4.3,+0.0,+0.0
# iter:  21 10:59:38   -15.141806c  -4.56  -4.29c  +4.3,+0.0,+0.0
# iter:  22 10:59:53   -15.141806c  -4.70  -4.30c  +4.3,+0.0,+0.0
# iter:  23 11:00:08   -15.141805c  -4.86  -4.16c  +4.3,+0.0,+0.0
# iter:  24 11:00:23   -15.141806c  -5.03  -4.69c  +4.3,+0.0,+0.0
# iter:  25 11:00:38   -15.141806c  -5.17  -4.77c  +4.3,+0.0,+0.0
# iter:  26 11:00:53   -15.141806c  -5.31  -4.69c  +4.3,+0.0,+0.0
# iter:  27 11:01:09   -15.141806c  -5.44  -4.69c  +4.3,+0.0,+0.0
# iter:  28 11:01:24   -15.141806c  -5.58  -4.69c  +4.3,+0.0,+0.0
# iter:  29 11:01:39   -15.141807c  -5.69  -4.77c  +4.3,+0.0,+0.0
# iter:  30 11:01:54   -15.141806c  -5.84  -4.92c  +4.3,+0.0,+0.0
# iter:  31 11:02:09   -15.141806c  -5.97  -5.15c  +4.3,+0.0,+0.0
# iter:  32 11:02:24   -15.141807c  -6.09  -5.09c  +4.3,+0.0,+0.0
# iter:  33 11:02:39   -15.141807c  -6.24  -5.13c  +4.3,+0.0,+0.0
# iter:  34 11:02:55   -15.141806c  -6.37  -5.34c  +4.3,+0.0,+0.0
# iter:  35 11:03:10   -15.141807c  -6.49  -5.29c  +4.3,+0.0,+0.0
# iter:  36 11:03:25   -15.141806c  -6.62  -5.34c  +4.3,+0.0,+0.0
# iter:  37 11:03:40   -15.141807c  -6.75  -5.24c  +4.3,+0.0,+0.0
# iter:  38 11:03:55   -15.141807c  -6.87  -5.50c  +4.3,+0.0,+0.0
# iter:  39 11:04:10   -15.141807c  -7.00  -5.77c  +4.3,+0.0,+0.0
# iter:  40 11:04:26   -15.141807c  -7.12  -5.81c  +4.3,+0.0,+0.0
# iter:  41 11:04:41   -15.141807c  -7.23  -5.97c  +4.3,+0.0,+0.0
# iter:  42 11:04:56   -15.141807c  -7.35  -6.01c  +4.3,+0.0,+0.0
# iter:  43 11:05:11   -15.141807c  -7.47c -6.10c  +4.3,+0.0,+0.0
scf_steps: 43
energies:  # eV
  coulomb:         -12.456336
  zero:              0.093418
  xc:              -17.137920
  external:          0.000000
  kinetic:          14.359495
  spinorbit:         0.000000
  entropy:          -0.000926
  total:           -15.142270
  extrapolated:    -15.141807

dipole moment: [-4.771948, -8.265255, -9.475201]  # |e|*Ang

total magnetic moment: [4.339512, 0.001745, 0.000000]

local magnetic moments: [
  [ 4.322494, -0.000044,  0.000000],  # Mn 0
  [-0.002227, -0.005617,  0.000000],  # I  1
  [-0.002227, -0.005617,  0.000000]]  # I  2


Fermi level: -1.215 eV

kpt = [-0.455, -0.455, 0.000], weight = 0.008:
  Band      eig [eV]   occ [0-1]
     0       -82.168       1.000
   ...
    21        -4.254       1.000
    22        -4.043       1.000
    23        -3.750       1.000
    24        -3.667       1.000
    25        -3.568       1.000
    26        -3.553       1.000
    27        -2.223       1.000
    28        -2.203       1.000
    29        -0.319       0.000
    30        -0.194       0.000
    31        -0.145       0.000
    32         0.449       0.000
    33         0.455       0.000
    34         1.773       0.000
    35         2.544       0.000
    36         3.901       0.000
   ...
    41         5.781       0.000

kpt = [-0.455, -0.364, 0.000], weight = 0.008:
  Band      eig [eV]   occ [0-1]
     0       -82.168       1.000
   ...
    21        -4.047       1.000
    22        -3.988       1.000
    23        -3.768       1.000
    24        -3.658       1.000
    25        -3.533       1.000
    26        -3.407       1.000
    27        -2.271       1.000
    28        -2.066       1.000
    29        -0.337       0.000
    30        -0.258       0.000
    31        -0.157       0.000
    32         0.436       0.000
    33         0.522       0.000
    34         1.618       0.000
    35         2.364       0.000
    36         3.472       0.000
   ...
    41         4.730       0.000

kpt = [-0.455, -0.273, 0.000], weight = 0.008:
  Band      eig [eV]   occ [0-1]
     0       -82.168       1.000
   ...
    21        -3.940       1.000
    22        -3.744       1.000
    23        -3.715       1.000
    24        -3.575       1.000
    25        -3.447       1.000
    26        -3.286       1.000
    27        -2.244       1.000
    28        -1.941       0.999
    29        -0.461       0.001
    30        -0.272       0.000
    31        -0.153       0.000
    32         0.439       0.000
    33         0.563       0.000
    34         1.462       0.000
    35         2.143       0.000
    36         3.049       0.000
   ...
    41         4.623       0.000
(only showing first 3 out of 121 k-points)

Gap: 1.418 eV
Transition (v -> c):
  (s=0, k=47, n=28, [-0.09, -0.18, 0.00]) -> (s=0, k=18, n=29, [-0.36, 0.18, 0.00])
# Writing to Band/gsq-60.gpw (mode='')

---

timing:  # [seconds]
  Total: 663.526  # ━━━━━━━━━━━━━━━━━━━━━━━━━━━━━━━━━━━━━━━━━━━━━━━━━━━━━━━━━
  Init:   10.209  # ━
  SCF:   652.949  # ━━━━━━━━━━━━━━━━━━━━━━━━━━━━━━━━━━━━━━━━━━━━━━━━━━━━━━━━

Max RSS: 1723.488  # MiB
