#  __  _  _
# | _ |_)|_||  |
# |__||  | ||/\| - 24.1.0

User:   s194113@n-62-29-21
Date:   Sat Apr 27 02:43:08 2024
Arch:   x86_64
Pid:    5028
CWD:    /work3/s194113/10302/10302_NM/MnI2
Python: 3.8.5
gpaw:   /zhome/87/8/147075/venv-name/gpaw/gpaw (10808453a8)
_gpaw:  /zhome/87/8/147075/venv-name/gpaw/
        _gpaw.cpython-38-x86_64-linux-gnu.so (10808453a8)
ase:    /zhome/87/8/147075/venv-name/ase/ase (version 3.23.0b1-c36115a2db)
numpy:  /zhome/87/8/147075/venv-name/lib/python3.8/site-packages/numpy (version 1.24.4)
scipy:  /zhome/87/8/147075/venv-name/lib/python3.8/site-packages/scipy (version 1.10.1)
libxc:  4.3.4
units:  Angstrom and eV
cores: 12
OpenMP: False
OMP_NUM_THREADS: 1

---
input parameters:
  kpts: 
    density: 6.0
    gamma: True
  magmoms: [[4.4079912, 0, 0], [0.08032672, 0, 0], [0.08032672, 0, 0]]
  mixer: 
    backend: 'pulay'
    beta: 0.05
    method: 'sum'
    nmaxold: 5
    weight: 100
  mode: 
    name: 'pw'
    ecut: 600.0
    qspiral: array([0.19444444, 0.        , 0.        ])
  parallel: 
    kpt: None
    domain: 1
    band: 1
    order: 'kdb'
    stridebands: False
    augment_grids: False
    sl_auto: False
    sl_default: None
    sl_diagonalize: None
    sl_inverse_cholesky: None
    sl_lcao: None
    sl_lrtddft: None
    use_elpa: False
    elpasolver: '2stage'
    buffer_size: None
    gpu: False
  symmetry: 
    point_group: False
    time_reversal: False
  xc: 
    name: 'LDA'

#                        
#                        
#                        
#                        
#              I         
#                        
#                        
#        Mn              
#          I             
#                        
#                        
#                        
#                        
#                        

atoms: [  # symbols, positions [Ang] and initial magnetic moments
  [ Mn, [   0.000000,    0.000000,    7.649535], [ 4.408,  0.000,  0.000]], # 0
  [  I, [   2.082858,    1.202539,    9.299069], [ 0.080,  0.000,  0.000]], # 1
  [  I, [   0.000000,    2.405077,    6.000000], [ 0.080,  0.000,  0.000]]] # 2

cell: [  # Ang
#     x            y            z
  [   4.165716,    0.000000,    0.000000],
  [  -2.082858,    3.607616,    0.000000],
  [   0.000000,    0.000000,   15.299069]]

periodic: [True      , True      , False     ]
lengths:  [  4.165716,   4.165716,  15.299069]  # Ang
angles:   [ 90.000000,  90.000000, 120.000000]

symmetry:
  number of symmetries: 1
  rotations: [
    [[ 1,  0,  0], [ 0,  1,  0], [ 0,  0,  1]]]

bz sampling:
  number of bz points: 121
  number of ibz points: 121
  monkhorst-pack size: [11, 11, 1]
  monkhorst-pack shift: [0, 0, 0]
  points and weights: [
    [[ -0.45454545,  -0.45454545,   0.00000000], 0.00826446],  # 0
    [[ -0.45454545,  -0.36363636,   0.00000000], 0.00826446],  # 1
    [[ -0.45454545,  -0.27272727,   0.00000000], 0.00826446],  # 2
    [[ -0.45454545,  -0.18181818,   0.00000000], 0.00826446],  # 3
    [[ -0.45454545,  -0.09090909,   0.00000000], 0.00826446],  # 4
    [[ -0.45454545,   0.00000000,   0.00000000], 0.00826446],  # 5
    [[ -0.45454545,   0.09090909,   0.00000000], 0.00826446],  # 6
    [[ -0.45454545,   0.18181818,   0.00000000], 0.00826446],  # 7
    [[ -0.45454545,   0.27272727,   0.00000000], 0.00826446],  # 8
    [[ -0.45454545,   0.36363636,   0.00000000], 0.00826446],  # 9
    # ...
    [[  0.45454545,   0.45454545,   0.00000000], 0.00826446]]  # 120

plane wave coefficients: 7719
cutoff: 600.0 eV

spin-components: 4  # (non-collinear spins)
bands: 42
valence electrons: 29.0
spin-degeneracy: 1
dtype: complex128

memory:
    wave functions: 1_248_301_824  # bytes  (104_025_152 per core)

parallelization:
    kpt:    12
    domain: 1
    band:   1

density:
  components: 4
  grid points: [24 24 90]
  charge: 0.0  # |e|

potential:
  grid points: [24 24 90]

species:
  Mn:
    name: Manganese
    id: 0d715a8018be061a6e9ea6f2d364ac92
    Z: 25.0
    valence: 15
    core: 10
    charge: 0.0
    file: /zhome/86/d/1666/PAW/gpaw-setups-0.9.20000/Mn.LDA.gz
    compensation charges: {type: gauss,
                           rc: 0.38,
                           lmax: 2}
    cutoffs: {filter: 2.14,
              core: 0.86}
    valence states:
      #              energy  rcut
      - 3s(2.00)   -85.387   1.275
      - 4s(2.00)    -5.282   1.275
      - 3p(6.00)   -54.493   1.281
      - 4p(0.00)    -1.471   1.281
      - 3d(5.00)    -7.009   1.138
      -  d          20.203   1.138
  
    # Using partial waves for Mn as LCAO basis

  I:
    name: Iodine
    id: b559721c0c096a7b4c8fc0e0f4de5cf4
    Z: 53.0
    valence: 7
    core: 46
    charge: 0.0
    file: /zhome/86/d/1666/PAW/gpaw-setups-0.9.20000/I.LDA.gz
    compensation charges: {type: gauss,
                           rc: 0.37,
                           lmax: 2}
    cutoffs: {filter: 2.06,
              core: 2.90}
    valence states:
      #              energy  rcut
      - 5s(2.00)   -17.626   1.164
      - 5p(5.00)    -7.241   1.164
      -  s           9.585   1.164
      -  p          19.970   1.164
      -  d           0.000   1.164
  
    # Using partial waves for I as LCAO basis

Reference energy: -418222.442431  # eV

eigensolver:
  name: 'Davidson'
  niter: 2
  converge_bands: 'occupied'
Density mixing:
  Method: sum
  Backend: pulay
  Linear mixing parameter: 0.05
  old densities: 5
  Damping of long wavelength oscillations: 100
occupation numbers:
  Fermi-Dirac:
    width: 0.1000  # eV
  

poisson solver:
  ecut: 4800.0  # eV

xc functional:
  name: None

convergence criteria:
- Maximum [total energy] change in last 3 cyles: 0.0005 eV / valence electron
- Maximum integral of absolute [dens]ity change: 0.0001 electrons / valence electron
- Maximum integral of absolute [eigenst]ate change: 4e-08 eV^2 / valence electron
maximum number of iterations: 333

#      iter     time        total  log10-change:
#                          energy   eigst   dens
# iter:   1 02:43:33   -15.172050                  +4.6,+0.0,+0.0
# iter:   2 02:43:49   -15.190335   -0.64  -1.49   +4.6,-0.0,-0.0
# iter:   3 02:44:04   -15.125100   -1.13  -1.52   +4.6,+0.0,+0.0
# iter:   4 02:44:20   -15.131179   -1.39  -1.58   +4.7,+0.0,+0.0
# iter:   5 02:44:36   -15.180112   -1.67  -1.79   +4.8,+0.0,-0.0
# iter:   6 02:44:51   -15.148506   -2.00  -2.26   +4.9,+0.0,+0.0
# iter:   7 02:45:07   -15.153937   -1.80  -2.29   +4.9,+0.0,-0.0
# iter:   8 02:45:22   -15.130986   -2.33  -2.40   +4.8,+0.0,-0.0
# iter:   9 02:45:38   -15.133137   -2.77  -2.82   +4.8,+0.0,+0.0
# iter:  10 02:45:54   -15.131516c  -3.02  -2.75   +4.8,+0.0,+0.0
# iter:  11 02:46:09   -15.131670c  -3.33  -2.81   +4.8,+0.0,+0.0
# iter:  12 02:46:25   -15.134021c  -3.12  -2.86   +4.8,+0.0,+0.0
# iter:  13 02:46:41   -15.131919c  -3.60  -2.86   +4.8,+0.0,+0.0
# iter:  14 02:46:56   -15.131402c  -3.79  -3.09   +4.8,+0.0,+0.0
# iter:  15 02:47:12   -15.131457c  -4.06  -3.38   +4.8,+0.0,+0.0
# iter:  16 02:47:28   -15.131387c  -4.21  -3.51   +4.8,+0.0,+0.0
# iter:  17 02:47:43   -15.131381c  -4.40  -3.59   +4.8,+0.0,+0.0
# iter:  18 02:47:59   -15.131405c  -4.56  -3.64   +4.8,+0.0,+0.0
# iter:  19 02:48:14   -15.131404c  -4.72  -3.61   +4.8,+0.0,-0.0
# iter:  20 02:48:30   -15.131427c  -4.86  -3.73   +4.8,+0.0,-0.0
# iter:  21 02:48:45   -15.131417c  -4.99  -4.01c  +4.8,+0.0,-0.0
# iter:  22 02:49:01   -15.131419c  -5.20  -4.15c  +4.8,+0.0,-0.0
# iter:  23 02:49:17   -15.131421c  -5.35  -4.41c  +4.8,+0.0,-0.0
# iter:  24 02:49:32   -15.131421c  -5.51  -4.46c  +4.8,+0.0,-0.0
# iter:  25 02:49:48   -15.131423c  -5.66  -4.63c  +4.8,+0.0,-0.0
# iter:  26 02:50:03   -15.131423c  -5.81  -4.74c  +4.8,+0.0,+0.0
# iter:  27 02:50:19   -15.131424c  -5.96  -4.80c  +4.8,+0.0,-0.0
# iter:  28 02:50:34   -15.131424c  -6.11  -4.95c  +4.8,+0.0,-0.0
# iter:  29 02:50:50   -15.131424c  -6.25  -5.07c  +4.8,+0.0,-0.0
# iter:  30 02:51:06   -15.131424c  -6.41  -5.32c  +4.8,+0.0,-0.0
# iter:  31 02:51:21   -15.131425c  -6.55  -5.45c  +4.8,+0.0,-0.0
# iter:  32 02:51:37   -15.131424c  -6.71  -5.49c  +4.8,+0.0,+0.0
# iter:  33 02:51:52   -15.131425c  -6.86  -5.56c  +4.8,+0.0,+0.0
# iter:  34 02:52:08   -15.131425c  -7.00  -5.57c  +4.8,+0.0,+0.0
# iter:  35 02:52:23   -15.131424c  -7.14  -5.67c  +4.8,+0.0,+0.0
# iter:  36 02:52:39   -15.131424c  -7.29  -5.71c  +4.8,+0.0,+0.0
# iter:  37 02:52:54   -15.131424c  -7.43c -5.58c  +4.8,+0.0,+0.0
scf_steps: 37
energies:  # eV
  coulomb:         -12.779979
  zero:              0.092465
  xc:              -17.203315
  external:          0.000000
  kinetic:          14.760165
  spinorbit:         0.000000
  entropy:          -0.001521
  total:           -15.132185
  extrapolated:    -15.131424

dipole moment: [-5.409143, -9.596953, -13.364229]  # |e|*Ang

total magnetic moment: [4.843834, 0.011466, 0.000000]

local magnetic moments: [
  [ 4.346500, -0.000370,  0.000000],  # Mn 0
  [ 0.044861, -0.050218,  0.000000],  # I  1
  [ 0.062528, -0.024991, -0.000000]]  # I  2


Fermi level: -1.257 eV

kpt = [-0.455, -0.455, 0.000], weight = 0.008:
  Band      eig [eV]   occ [0-1]
     0       -82.200       1.000
   ...
    21        -3.935       1.000
    22        -3.897       1.000
    23        -3.776       1.000
    24        -3.756       1.000
    25        -3.592       1.000
    26        -3.557       1.000
    27        -2.104       1.000
    28        -2.026       1.000
    29        -0.614       0.002
    30        -0.162       0.000
    31        -0.151       0.000
    32         0.496       0.000
    33         0.636       0.000
    34         1.252       0.000
    35         2.219       0.000
    36         2.922       0.000
   ...
    41         4.897       0.000

kpt = [-0.455, -0.364, 0.000], weight = 0.008:
  Band      eig [eV]   occ [0-1]
     0       -82.200       1.000
   ...
    21        -4.039       1.000
    22        -3.885       1.000
    23        -3.845       1.000
    24        -3.684       1.000
    25        -3.549       1.000
    26        -3.495       1.000
    27        -2.188       1.000
    28        -2.117       1.000
    29        -0.479       0.000
    30        -0.174       0.000
    31        -0.152       0.000
    32         0.440       0.000
    33         0.556       0.000
    34         1.501       0.000
    35         2.393       0.000
    36         3.252       0.000
   ...
    41         5.049       0.000

kpt = [-0.455, -0.273, 0.000], weight = 0.008:
  Band      eig [eV]   occ [0-1]
     0       -82.200       1.000
   ...
    21        -4.086       1.000
    22        -3.937       1.000
    23        -3.818       1.000
    24        -3.695       1.000
    25        -3.513       1.000
    26        -3.419       1.000
    27        -2.335       1.000
    28        -2.123       1.000
    29        -0.345       0.000
    30        -0.216       0.000
    31        -0.157       0.000
    32         0.358       0.000
    33         0.533       0.000
    34         1.801       0.000
    35         2.584       0.000
    36         3.651       0.000
   ...
    41         5.103       0.000
(only showing first 3 out of 121 k-points)

Gap: 0.950 eV
Transition (v -> c):
  (s=0, k=60, n=28, [0.00, 0.00, 0.00]) -> (s=0, k=115, n=29, [0.45, 0.00, 0.00])
# Writing to Band/gsq-14.gpw (mode='')

---

timing:  # [seconds]
  Total: 1177.910  # ━━━━━━━━━━━━━━━━━━━━━━━━━━━━━━━━━━━━━━━━━━━━━━━━━━━━━━━━
  Init:    10.157  # ╸
  SCF:    576.114  # ━━━━━━━━━━━━━━━━━━━━━━━━━━━╸

Max RSS: 857.352  # MiB
