#  __  _  _
# | _ |_)|_||  |
# |__||  | ||/\| - 24.1.0

User:   s194113@n-62-29-21
Date:   Sat Apr 27 00:49:43 2024
Arch:   x86_64
Pid:    5028
CWD:    /work3/s194113/10302/10302_NM/MnI2
Python: 3.8.5
gpaw:   /zhome/87/8/147075/venv-name/gpaw/gpaw (10808453a8)
_gpaw:  /zhome/87/8/147075/venv-name/gpaw/
        _gpaw.cpython-38-x86_64-linux-gnu.so (10808453a8)
ase:    /zhome/87/8/147075/venv-name/ase/ase (version 3.23.0b1-c36115a2db)
numpy:  /zhome/87/8/147075/venv-name/lib/python3.8/site-packages/numpy (version 1.24.4)
scipy:  /zhome/87/8/147075/venv-name/lib/python3.8/site-packages/scipy (version 1.10.1)
libxc:  4.3.4
units:  Angstrom and eV
cores: 12
OpenMP: False
OMP_NUM_THREADS: 1

---
input parameters:
  kpts: 
    density: 6.0
    gamma: True
  magmoms: [[4.4079912, 0, 0], [0.08032672, 0, 0], [0.08032672, 0, 0]]
  mixer: 
    backend: 'pulay'
    beta: 0.05
    method: 'sum'
    nmaxold: 5
    weight: 100
  mode: 
    name: 'pw'
    ecut: 600.0
    qspiral: array([0.02777778, 0.        , 0.        ])
  parallel: 
    kpt: None
    domain: 1
    band: 1
    order: 'kdb'
    stridebands: False
    augment_grids: False
    sl_auto: False
    sl_default: None
    sl_diagonalize: None
    sl_inverse_cholesky: None
    sl_lcao: None
    sl_lrtddft: None
    use_elpa: False
    elpasolver: '2stage'
    buffer_size: None
    gpu: False
  symmetry: 
    point_group: False
    time_reversal: False
  xc: 
    name: 'LDA'

#                        
#                        
#                        
#                        
#              I         
#                        
#                        
#        Mn              
#          I             
#                        
#                        
#                        
#                        
#                        

atoms: [  # symbols, positions [Ang] and initial magnetic moments
  [ Mn, [   0.000000,    0.000000,    7.649535], [ 4.408,  0.000,  0.000]], # 0
  [  I, [   2.082858,    1.202539,    9.299069], [ 0.080,  0.000,  0.000]], # 1
  [  I, [   0.000000,    2.405077,    6.000000], [ 0.080,  0.000,  0.000]]] # 2

cell: [  # Ang
#     x            y            z
  [   4.165716,    0.000000,    0.000000],
  [  -2.082858,    3.607616,    0.000000],
  [   0.000000,    0.000000,   15.299069]]

periodic: [True      , True      , False     ]
lengths:  [  4.165716,   4.165716,  15.299069]  # Ang
angles:   [ 90.000000,  90.000000, 120.000000]

symmetry:
  number of symmetries: 1
  rotations: [
    [[ 1,  0,  0], [ 0,  1,  0], [ 0,  0,  1]]]

bz sampling:
  number of bz points: 121
  number of ibz points: 121
  monkhorst-pack size: [11, 11, 1]
  monkhorst-pack shift: [0, 0, 0]
  points and weights: [
    [[ -0.45454545,  -0.45454545,   0.00000000], 0.00826446],  # 0
    [[ -0.45454545,  -0.36363636,   0.00000000], 0.00826446],  # 1
    [[ -0.45454545,  -0.27272727,   0.00000000], 0.00826446],  # 2
    [[ -0.45454545,  -0.18181818,   0.00000000], 0.00826446],  # 3
    [[ -0.45454545,  -0.09090909,   0.00000000], 0.00826446],  # 4
    [[ -0.45454545,   0.00000000,   0.00000000], 0.00826446],  # 5
    [[ -0.45454545,   0.09090909,   0.00000000], 0.00826446],  # 6
    [[ -0.45454545,   0.18181818,   0.00000000], 0.00826446],  # 7
    [[ -0.45454545,   0.27272727,   0.00000000], 0.00826446],  # 8
    [[ -0.45454545,   0.36363636,   0.00000000], 0.00826446],  # 9
    # ...
    [[  0.45454545,   0.45454545,   0.00000000], 0.00826446]]  # 120

plane wave coefficients: 7719
cutoff: 600.0 eV

spin-components: 4  # (non-collinear spins)
bands: 42
valence electrons: 29.0
spin-degeneracy: 1
dtype: complex128

memory:
    wave functions: 1_248_301_824  # bytes  (104_025_152 per core)

parallelization:
    kpt:    12
    domain: 1
    band:   1

density:
  components: 4
  grid points: [24 24 90]
  charge: 0.0  # |e|

potential:
  grid points: [24 24 90]

species:
  Mn:
    name: Manganese
    id: 0d715a8018be061a6e9ea6f2d364ac92
    Z: 25.0
    valence: 15
    core: 10
    charge: 0.0
    file: /zhome/86/d/1666/PAW/gpaw-setups-0.9.20000/Mn.LDA.gz
    compensation charges: {type: gauss,
                           rc: 0.38,
                           lmax: 2}
    cutoffs: {filter: 2.14,
              core: 0.86}
    valence states:
      #              energy  rcut
      - 3s(2.00)   -85.387   1.275
      - 4s(2.00)    -5.282   1.275
      - 3p(6.00)   -54.493   1.281
      - 4p(0.00)    -1.471   1.281
      - 3d(5.00)    -7.009   1.138
      -  d          20.203   1.138
  
    # Using partial waves for Mn as LCAO basis

  I:
    name: Iodine
    id: b559721c0c096a7b4c8fc0e0f4de5cf4
    Z: 53.0
    valence: 7
    core: 46
    charge: 0.0
    file: /zhome/86/d/1666/PAW/gpaw-setups-0.9.20000/I.LDA.gz
    compensation charges: {type: gauss,
                           rc: 0.37,
                           lmax: 2}
    cutoffs: {filter: 2.06,
              core: 2.90}
    valence states:
      #              energy  rcut
      - 5s(2.00)   -17.626   1.164
      - 5p(5.00)    -7.241   1.164
      -  s           9.585   1.164
      -  p          19.970   1.164
      -  d           0.000   1.164
  
    # Using partial waves for I as LCAO basis

Reference energy: -418222.442431  # eV

eigensolver:
  name: 'Davidson'
  niter: 2
  converge_bands: 'occupied'
Density mixing:
  Method: sum
  Backend: pulay
  Linear mixing parameter: 0.05
  old densities: 5
  Damping of long wavelength oscillations: 100
occupation numbers:
  Fermi-Dirac:
    width: 0.1000  # eV
  

poisson solver:
  ecut: 4800.0  # eV

xc functional:
  name: None

convergence criteria:
- Maximum [total energy] change in last 3 cyles: 0.0005 eV / valence electron
- Maximum integral of absolute [dens]ity change: 0.0001 electrons / valence electron
- Maximum integral of absolute [eigenst]ate change: 4e-08 eV^2 / valence electron
maximum number of iterations: 333

#      iter     time        total  log10-change:
#                          energy   eigst   dens
# iter:   1 00:50:08   -15.210027                  +4.6,+0.0,+0.0
# iter:   2 00:50:23   -15.181101   -0.79  -1.49   +4.8,-0.0,+0.0
# iter:   3 00:50:39   -15.103835   -1.17  -1.51   +4.8,+0.0,+0.0
# iter:   4 00:50:54   -15.116981   -1.50  -1.60   +4.9,+0.0,+0.0
# iter:   5 00:51:09   -15.151610   -1.75  -1.79   +5.0,+0.0,-0.0
# iter:   6 00:51:25   -15.124552   -1.99  -2.29   +5.0,+0.0,-0.0
# iter:   7 00:51:40   -15.120806   -2.27  -2.43   +5.0,+0.0,+0.0
# iter:   8 00:51:55   -15.151732   -2.19  -2.76   +5.0,+0.0,-0.0
# iter:   9 00:52:10   -15.123126   -2.09  -2.42   +5.0,+0.0,+0.0
# iter:  10 00:52:26   -15.120869   -3.08  -2.92   +5.0,+0.0,-0.0
# iter:  11 00:52:41   -15.120892c  -3.42  -3.40   +5.0,+0.0,-0.0
# iter:  12 00:52:56   -15.120858c  -3.62  -3.45   +5.0,+0.0,+0.0
# iter:  13 00:53:11   -15.120890c  -3.84  -3.52   +5.0,+0.0,+0.0
# iter:  14 00:53:27   -15.120921c  -4.02  -3.65   +5.0,+0.0,+0.0
# iter:  15 00:53:42   -15.120920c  -4.22  -3.87   +5.0,+0.0,-0.0
# iter:  16 00:53:58   -15.120922c  -4.40  -3.85   +5.0,+0.0,-0.0
# iter:  17 00:54:13   -15.120926c  -4.58  -3.88   +5.0,+0.0,-0.0
# iter:  18 00:54:28   -15.120926c  -4.77  -3.97   +5.0,+0.0,-0.0
# iter:  19 00:54:43   -15.120929c  -4.92  -4.00c  +5.0,+0.0,-0.0
# iter:  20 00:54:58   -15.120935c  -5.08  -4.29c  +5.0,+0.0,-0.0
# iter:  21 00:55:13   -15.120930c  -5.27  -4.41c  +5.0,+0.0,-0.0
# iter:  22 00:55:29   -15.120932c  -5.44  -4.53c  +5.0,+0.0,-0.0
# iter:  23 00:55:44   -15.120933c  -5.61  -4.67c  +5.0,+0.0,-0.0
# iter:  24 00:55:59   -15.120931c  -5.79  -4.72c  +5.0,+0.0,-0.0
# iter:  25 00:56:14   -15.120932c  -5.95  -5.01c  +5.0,+0.0,-0.0
# iter:  26 00:56:30   -15.120933c  -6.09  -5.10c  +5.0,+0.0,-0.0
# iter:  27 00:56:45   -15.120931c  -6.26  -5.20c  +5.0,+0.0,-0.0
# iter:  28 00:57:00   -15.120933c  -6.41  -5.11c  +5.0,+0.0,-0.0
# iter:  29 00:57:15   -15.120933c  -6.59  -5.49c  +5.0,+0.0,-0.0
# iter:  30 00:57:31   -15.120933c  -6.75  -5.74c  +5.0,+0.0,-0.0
# iter:  31 00:57:46   -15.120933c  -6.91  -5.84c  +5.0,+0.0,-0.0
# iter:  32 00:58:01   -15.120933c  -7.07  -5.93c  +5.0,+0.0,-0.0
# iter:  33 00:58:16   -15.120933c  -7.23  -5.92c  +5.0,+0.0,-0.0
# iter:  34 00:58:32   -15.120933c  -7.38  -6.14c  +5.0,+0.0,-0.0
# iter:  35 00:58:47   -15.120933c  -7.54c -6.40c  +5.0,+0.0,-0.0
scf_steps: 35
energies:  # eV
  coulomb:         -13.073484
  zero:              0.091683
  xc:              -17.255922
  external:          0.000000
  kinetic:          15.118010
  spinorbit:         0.000000
  entropy:          -0.002439
  total:           -15.122152
  extrapolated:    -15.120933

dipole moment: [-5.728285, -9.951867, -14.542739]  # |e|*Ang

total magnetic moment: [4.992778, 0.002267, -0.000000]

local magnetic moments: [
  [ 4.362137, -0.000073, -0.000000],  # Mn 0
  [ 0.084960, -0.009938, -0.000000],  # I  1
  [ 0.085395, -0.004969,  0.000000]]  # I  2


Fermi level: -1.254 eV

kpt = [-0.455, -0.455, 0.000], weight = 0.008:
  Band      eig [eV]   occ [0-1]
     0       -82.224       1.000
   ...
    21        -3.956       1.000
    22        -3.889       1.000
    23        -3.860       1.000
    24        -3.720       1.000
    25        -3.673       1.000
    26        -3.616       1.000
    27        -2.055       1.000
    28        -2.020       1.000
    29        -0.670       0.003
    30        -0.164       0.000
    31        -0.155       0.000
    32         0.518       0.000
    33         0.669       0.000
    34         1.154       0.000
    35         2.033       0.000
    36         3.048       0.000
   ...
    41         4.582       0.000

kpt = [-0.455, -0.364, 0.000], weight = 0.008:
  Band      eig [eV]   occ [0-1]
     0       -82.224       1.000
   ...
    21        -4.023       1.000
    22        -3.976       1.000
    23        -3.822       1.000
    24        -3.784       1.000
    25        -3.597       1.000
    26        -3.549       1.000
    27        -2.292       1.000
    28        -2.080       1.000
    29        -0.467       0.000
    30        -0.172       0.000
    31        -0.162       0.000
    32         0.389       0.000
    33         0.611       0.000
    34         1.559       0.000
    35         2.417       0.000
    36         3.638       0.000
   ...
    41         4.677       0.000

kpt = [-0.455, -0.273, 0.000], weight = 0.008:
  Band      eig [eV]   occ [0-1]
     0       -82.224       1.000
   ...
    21        -4.149       1.000
    22        -3.981       1.000
    23        -3.828       1.000
    24        -3.809       1.000
    25        -3.539       1.000
    26        -3.508       1.000
    27        -2.415       1.000
    28        -2.100       1.000
    29        -0.356       0.000
    30        -0.200       0.000
    31        -0.163       0.000
    32         0.337       0.000
    33         0.576       0.000
    34         1.779       0.000
    35         2.657       0.000
    36         3.632       0.000
   ...
    41         5.230       0.000
(only showing first 3 out of 121 k-points)

Gap: 0.899 eV
Transition (v -> c):
  (s=0, k=60, n=28, [0.00, 0.00, 0.00]) -> (s=0, k=5, n=29, [-0.45, 0.00, 0.00])
# Writing to Band/gsq-02.gpw (mode='')

---

timing:  # [seconds]
  Total: 544.274  # ━━━━━━━━━━━━━━━━━━━━━━━━━━━━━━━━━━━━━━━━━━━━━━━━━━━━━━━━━
  Init:   10.184  # ━
  SCF:   533.782  # ━━━━━━━━━━━━━━━━━━━━━━━━━━━━━━━━━━━━━━━━━━━━━━━━━━━━━━━━

Max RSS: 639.891  # MiB
