#  __  _  _
# | _ |_)|_||  |
# |__||  | ||/\| - 24.1.0

User:   s194113@n-62-29-21
Date:   Sat Apr 27 14:07:05 2024
Arch:   x86_64
Pid:    5028
CWD:    /work3/s194113/10302/10302_NM/MnI2
Python: 3.8.5
gpaw:   /zhome/87/8/147075/venv-name/gpaw/gpaw (10808453a8)
_gpaw:  /zhome/87/8/147075/venv-name/gpaw/
        _gpaw.cpython-38-x86_64-linux-gnu.so (10808453a8)
ase:    /zhome/87/8/147075/venv-name/ase/ase (version 3.23.0b1-c36115a2db)
numpy:  /zhome/87/8/147075/venv-name/lib/python3.8/site-packages/numpy (version 1.24.4)
scipy:  /zhome/87/8/147075/venv-name/lib/python3.8/site-packages/scipy (version 1.10.1)
libxc:  4.3.4
units:  Angstrom and eV
cores: 12
OpenMP: False
OMP_NUM_THREADS: 1

---
input parameters:
  kpts: 
    density: 6.0
    gamma: True
  magmoms: [[4.4079912, 0, 0], [0.08032672, 0, 0], [0.08032672, 0, 0]]
  mixer: 
    backend: 'pulay'
    beta: 0.05
    method: 'sum'
    nmaxold: 5
    weight: 100
  mode: 
    name: 'pw'
    ecut: 600.0
    qspiral: array([0.17054264, 0.17054264, 0.        ])
  parallel: 
    kpt: None
    domain: 1
    band: 1
    order: 'kdb'
    stridebands: False
    augment_grids: False
    sl_auto: False
    sl_default: None
    sl_diagonalize: None
    sl_inverse_cholesky: None
    sl_lcao: None
    sl_lrtddft: None
    use_elpa: False
    elpasolver: '2stage'
    buffer_size: None
    gpu: False
  symmetry: 
    point_group: False
    time_reversal: False
  xc: 
    name: 'LDA'

#                        
#                        
#                        
#                        
#              I         
#                        
#                        
#        Mn              
#          I             
#                        
#                        
#                        
#                        
#                        

atoms: [  # symbols, positions [Ang] and initial magnetic moments
  [ Mn, [   0.000000,    0.000000,    7.649535], [ 4.408,  0.000,  0.000]], # 0
  [  I, [   2.082858,    1.202539,    9.299069], [ 0.080,  0.000,  0.000]], # 1
  [  I, [   0.000000,    2.405077,    6.000000], [ 0.080,  0.000,  0.000]]] # 2

cell: [  # Ang
#     x            y            z
  [   4.165716,    0.000000,    0.000000],
  [  -2.082858,    3.607616,    0.000000],
  [   0.000000,    0.000000,   15.299069]]

periodic: [True      , True      , False     ]
lengths:  [  4.165716,   4.165716,  15.299069]  # Ang
angles:   [ 90.000000,  90.000000, 120.000000]

symmetry:
  number of symmetries: 1
  rotations: [
    [[ 1,  0,  0], [ 0,  1,  0], [ 0,  0,  1]]]

bz sampling:
  number of bz points: 121
  number of ibz points: 121
  monkhorst-pack size: [11, 11, 1]
  monkhorst-pack shift: [0, 0, 0]
  points and weights: [
    [[ -0.45454545,  -0.45454545,   0.00000000], 0.00826446],  # 0
    [[ -0.45454545,  -0.36363636,   0.00000000], 0.00826446],  # 1
    [[ -0.45454545,  -0.27272727,   0.00000000], 0.00826446],  # 2
    [[ -0.45454545,  -0.18181818,   0.00000000], 0.00826446],  # 3
    [[ -0.45454545,  -0.09090909,   0.00000000], 0.00826446],  # 4
    [[ -0.45454545,   0.00000000,   0.00000000], 0.00826446],  # 5
    [[ -0.45454545,   0.09090909,   0.00000000], 0.00826446],  # 6
    [[ -0.45454545,   0.18181818,   0.00000000], 0.00826446],  # 7
    [[ -0.45454545,   0.27272727,   0.00000000], 0.00826446],  # 8
    [[ -0.45454545,   0.36363636,   0.00000000], 0.00826446],  # 9
    # ...
    [[  0.45454545,   0.45454545,   0.00000000], 0.00826446]]  # 120

plane wave coefficients: 7719
cutoff: 600.0 eV

spin-components: 4  # (non-collinear spins)
bands: 42
valence electrons: 29.0
spin-degeneracy: 1
dtype: complex128

memory:
    wave functions: 1_248_301_824  # bytes  (104_025_152 per core)

parallelization:
    kpt:    12
    domain: 1
    band:   1

density:
  components: 4
  grid points: [24 24 90]
  charge: 0.0  # |e|

potential:
  grid points: [24 24 90]

species:
  Mn:
    name: Manganese
    id: 0d715a8018be061a6e9ea6f2d364ac92
    Z: 25.0
    valence: 15
    core: 10
    charge: 0.0
    file: /zhome/86/d/1666/PAW/gpaw-setups-0.9.20000/Mn.LDA.gz
    compensation charges: {type: gauss,
                           rc: 0.38,
                           lmax: 2}
    cutoffs: {filter: 2.14,
              core: 0.86}
    valence states:
      #              energy  rcut
      - 3s(2.00)   -85.387   1.275
      - 4s(2.00)    -5.282   1.275
      - 3p(6.00)   -54.493   1.281
      - 4p(0.00)    -1.471   1.281
      - 3d(5.00)    -7.009   1.138
      -  d          20.203   1.138
  
    # Using partial waves for Mn as LCAO basis

  I:
    name: Iodine
    id: b559721c0c096a7b4c8fc0e0f4de5cf4
    Z: 53.0
    valence: 7
    core: 46
    charge: 0.0
    file: /zhome/86/d/1666/PAW/gpaw-setups-0.9.20000/I.LDA.gz
    compensation charges: {type: gauss,
                           rc: 0.37,
                           lmax: 2}
    cutoffs: {filter: 2.06,
              core: 2.90}
    valence states:
      #              energy  rcut
      - 5s(2.00)   -17.626   1.164
      - 5p(5.00)    -7.241   1.164
      -  s           9.585   1.164
      -  p          19.970   1.164
      -  d           0.000   1.164
  
    # Using partial waves for I as LCAO basis

Reference energy: -418222.442431  # eV

eigensolver:
  name: 'Davidson'
  niter: 2
  converge_bands: 'occupied'
Density mixing:
  Method: sum
  Backend: pulay
  Linear mixing parameter: 0.05
  old densities: 5
  Damping of long wavelength oscillations: 100
occupation numbers:
  Fermi-Dirac:
    width: 0.1000  # eV
  

poisson solver:
  ecut: 4800.0  # eV

xc functional:
  name: None

convergence criteria:
- Maximum [total energy] change in last 3 cyles: 0.0005 eV / valence electron
- Maximum integral of absolute [dens]ity change: 0.0001 electrons / valence electron
- Maximum integral of absolute [eigenst]ate change: 4e-08 eV^2 / valence electron
maximum number of iterations: 333

#      iter     time        total  log10-change:
#                          energy   eigst   dens
# iter:   1 14:07:30   -15.100408                  +4.6,+0.0,+0.0
# iter:   2 14:07:46   -15.189537   -0.49  -1.49   +4.5,-0.0,+0.0
# iter:   3 14:08:01   -15.135026   -1.03  -1.52   +4.5,-0.0,+0.0
# iter:   4 14:08:16   -15.146349   -1.27  -1.57   +4.5,+0.0,+0.0
# iter:   5 14:08:32   -15.203232   -1.58  -1.78   +4.7,+0.0,+0.0
# iter:   6 14:08:47   -15.226917   -1.91  -2.23   +4.7,+0.0,+0.0
# iter:   7 14:09:02   -15.149561   -1.95  -2.17   +4.7,+0.0,+0.0
# iter:   8 14:09:17   -15.137039   -2.18  -2.36   +4.7,+0.0,-0.0
# iter:   9 14:09:32   -15.144390c  -2.60  -2.61   +4.7,+0.0,-0.0
# iter:  10 14:09:48   -15.140593c  -2.96  -2.64   +4.7,+0.0,+0.0
# iter:  11 14:10:03   -15.137679c  -3.07  -2.69   +4.7,+0.0,-0.0
# iter:  12 14:10:18   -15.137449c  -3.24  -3.00   +4.7,+0.0,-0.0
# iter:  13 14:10:33   -15.137402c  -3.59  -3.45   +4.7,+0.0,-0.0
# iter:  14 14:10:48   -15.137673c  -3.70  -3.56   +4.7,+0.0,-0.0
# iter:  15 14:11:04   -15.137510c  -3.73  -3.44   +4.7,+0.0,-0.0
# iter:  16 14:11:19   -15.137431c  -4.11  -3.53   +4.7,+0.0,-0.0
# iter:  17 14:11:34   -15.137436c  -4.30  -3.90   +4.7,+0.0,-0.0
# iter:  18 14:11:49   -15.137438c  -4.45  -4.00c  +4.7,+0.0,-0.0
# iter:  19 14:12:04   -15.137438c  -4.61  -4.00   +4.7,+0.0,-0.0
# iter:  20 14:12:20   -15.137439c  -4.76  -4.27c  +4.7,+0.0,-0.0
# iter:  21 14:12:35   -15.137440c  -4.91  -4.50c  +4.7,+0.0,-0.0
# iter:  22 14:12:50   -15.137442c  -5.05  -4.58c  +4.7,+0.0,-0.0
# iter:  23 14:13:05   -15.137443c  -5.21  -4.76c  +4.7,+0.0,-0.0
# iter:  24 14:13:20   -15.137441c  -5.33  -4.78c  +4.7,+0.0,-0.0
# iter:  25 14:13:35   -15.137441c  -5.49  -4.71c  +4.7,+0.0,-0.0
# iter:  26 14:13:50   -15.137441c  -5.63  -4.94c  +4.7,+0.0,-0.0
# iter:  27 14:14:06   -15.137441c  -5.77  -4.61c  +4.7,+0.0,-0.0
# iter:  28 14:14:21   -15.137443c  -5.85  -4.65c  +4.7,+0.0,-0.0
# iter:  29 14:14:36   -15.137442c  -6.03  -5.09c  +4.7,+0.0,-0.0
# iter:  30 14:14:51   -15.137442c  -6.16  -5.17c  +4.7,+0.0,-0.0
# iter:  31 14:15:06   -15.137443c  -6.29  -5.19c  +4.7,+0.0,-0.0
# iter:  32 14:15:21   -15.137442c  -6.42  -5.19c  +4.7,+0.0,-0.0
# iter:  33 14:15:36   -15.137442c  -6.56  -5.38c  +4.7,+0.0,-0.0
# iter:  34 14:15:52   -15.137442c  -6.68  -5.45c  +4.7,+0.0,-0.0
# iter:  35 14:16:07   -15.137442c  -6.81  -5.53c  +4.7,+0.0,-0.0
# iter:  36 14:16:22   -15.137442c  -6.93  -5.60c  +4.7,+0.0,-0.0
# iter:  37 14:16:38   -15.137443c  -7.04  -5.69c  +4.7,+0.0,-0.0
# iter:  38 14:16:53   -15.137442c  -7.17  -5.63c  +4.7,+0.0,-0.0
# iter:  39 14:17:08   -15.137442c  -7.32  -5.81c  +4.7,+0.0,-0.0
# iter:  40 14:17:23   -15.137442c  -7.44c -6.17c  +4.7,+0.0,-0.0
scf_steps: 40
energies:  # eV
  coulomb:         -12.603919
  zero:              0.092895
  xc:              -17.169828
  external:          0.000000
  kinetic:          14.543980
  spinorbit:         0.000000
  entropy:          -0.001139
  total:           -15.138012
  extrapolated:    -15.137442

dipole moment: [-5.279863, -9.144990, -12.222990]  # |e|*Ang

total magnetic moment: [4.695863, 0.013254, -0.000000]

local magnetic moments: [
  [ 4.335331, -0.000372, -0.000000],  # Mn 0
  [ 0.023521, -0.043141, -0.000000],  # I  1
  [ 0.023521, -0.043141, -0.000000]]  # I  2


Fermi level: -1.245 eV

kpt = [-0.455, -0.455, 0.000], weight = 0.008:
  Band      eig [eV]   occ [0-1]
     0       -82.184       1.000
   ...
    21        -4.025       1.000
    22        -3.951       1.000
    23        -3.874       1.000
    24        -3.637       1.000
    25        -3.610       1.000
    26        -3.567       1.000
    27        -2.125       1.000
    28        -2.109       1.000
    29        -0.510       0.001
    30        -0.179       0.000
    31        -0.142       0.000
    32         0.463       0.000
    33         0.595       0.000
    34         1.389       0.000
    35         2.358       0.000
    36         3.148       0.000
   ...
    41         5.499       0.000

kpt = [-0.455, -0.364, 0.000], weight = 0.008:
  Band      eig [eV]   occ [0-1]
     0       -82.184       1.000
   ...
    21        -3.934       1.000
    22        -3.921       1.000
    23        -3.788       1.000
    24        -3.743       1.000
    25        -3.555       1.000
    26        -3.479       1.000
    27        -2.220       1.000
    28        -2.029       1.000
    29        -0.486       0.001
    30        -0.210       0.000
    31        -0.142       0.000
    32         0.506       0.000
    33         0.549       0.000
    34         1.339       0.000
    35         2.335       0.000
    36         2.929       0.000
   ...
    41         5.271       0.000

kpt = [-0.455, -0.273, 0.000], weight = 0.008:
  Band      eig [eV]   occ [0-1]
     0       -82.184       1.000
   ...
    21        -4.060       1.000
    22        -3.856       1.000
    23        -3.826       1.000
    24        -3.733       1.000
    25        -3.466       1.000
    26        -3.425       1.000
    27        -2.258       1.000
    28        -2.056       1.000
    29        -0.367       0.000
    30        -0.279       0.000
    31        -0.147       0.000
    32         0.429       0.000
    33         0.562       0.000
    34         1.541       0.000
    35         2.249       0.000
    36         3.354       0.000
   ...
    41         4.859       0.000
(only showing first 3 out of 121 k-points)

Gap: 1.167 eV
Transition (v -> c):
  (s=0, k=60, n=28, [0.00, 0.00, 0.00]) -> (s=0, k=115, n=29, [0.45, 0.00, 0.00])
# Writing to Band/gsq-78.gpw (mode='')

---

timing:  # [seconds]
  Total: 617.914  # ━━━━━━━━━━━━━━━━━━━━━━━━━━━━━━━━━━━━━━━━━━━━━━━━━━━━━━━━━
  Init:   10.159  # ━
  SCF:   607.331  # ━━━━━━━━━━━━━━━━━━━━━━━━━━━━━━━━━━━━━━━━━━━━━━━━━━━━━━━━

Max RSS: 1876.633  # MiB
