#  __  _  _
# | _ |_)|_||  |
# |__||  | ||/\| - 24.1.0

User:   s194113@n-62-29-21
Date:   Sat Apr 27 07:56:31 2024
Arch:   x86_64
Pid:    5028
CWD:    /work3/s194113/10302/10302_NM/MnI2
Python: 3.8.5
gpaw:   /zhome/87/8/147075/venv-name/gpaw/gpaw (10808453a8)
_gpaw:  /zhome/87/8/147075/venv-name/gpaw/
        _gpaw.cpython-38-x86_64-linux-gnu.so (10808453a8)
ase:    /zhome/87/8/147075/venv-name/ase/ase (version 3.23.0b1-c36115a2db)
numpy:  /zhome/87/8/147075/venv-name/lib/python3.8/site-packages/numpy (version 1.24.4)
scipy:  /zhome/87/8/147075/venv-name/lib/python3.8/site-packages/scipy (version 1.10.1)
libxc:  4.3.4
units:  Angstrom and eV
cores: 12
OpenMP: False
OMP_NUM_THREADS: 1

---
input parameters:
  kpts: 
    density: 6.0
    gamma: True
  magmoms: [[4.4079912, 0, 0], [0.08032672, 0, 0], [0.08032672, 0, 0]]
  mixer: 
    backend: 'pulay'
    beta: 0.05
    method: 'sum'
    nmaxold: 5
    weight: 100
  mode: 
    name: 'pw'
    ecut: 600.0
    qspiral: array([0.43650794, 0.12698413, 0.        ])
  parallel: 
    kpt: None
    domain: 1
    band: 1
    order: 'kdb'
    stridebands: False
    augment_grids: False
    sl_auto: False
    sl_default: None
    sl_diagonalize: None
    sl_inverse_cholesky: None
    sl_lcao: None
    sl_lrtddft: None
    use_elpa: False
    elpasolver: '2stage'
    buffer_size: None
    gpu: False
  symmetry: 
    point_group: False
    time_reversal: False
  xc: 
    name: 'LDA'

#                        
#                        
#                        
#                        
#              I         
#                        
#                        
#        Mn              
#          I             
#                        
#                        
#                        
#                        
#                        

atoms: [  # symbols, positions [Ang] and initial magnetic moments
  [ Mn, [   0.000000,    0.000000,    7.649535], [ 4.408,  0.000,  0.000]], # 0
  [  I, [   2.082858,    1.202539,    9.299069], [ 0.080,  0.000,  0.000]], # 1
  [  I, [   0.000000,    2.405077,    6.000000], [ 0.080,  0.000,  0.000]]] # 2

cell: [  # Ang
#     x            y            z
  [   4.165716,    0.000000,    0.000000],
  [  -2.082858,    3.607616,    0.000000],
  [   0.000000,    0.000000,   15.299069]]

periodic: [True      , True      , False     ]
lengths:  [  4.165716,   4.165716,  15.299069]  # Ang
angles:   [ 90.000000,  90.000000, 120.000000]

symmetry:
  number of symmetries: 1
  rotations: [
    [[ 1,  0,  0], [ 0,  1,  0], [ 0,  0,  1]]]

bz sampling:
  number of bz points: 121
  number of ibz points: 121
  monkhorst-pack size: [11, 11, 1]
  monkhorst-pack shift: [0, 0, 0]
  points and weights: [
    [[ -0.45454545,  -0.45454545,   0.00000000], 0.00826446],  # 0
    [[ -0.45454545,  -0.36363636,   0.00000000], 0.00826446],  # 1
    [[ -0.45454545,  -0.27272727,   0.00000000], 0.00826446],  # 2
    [[ -0.45454545,  -0.18181818,   0.00000000], 0.00826446],  # 3
    [[ -0.45454545,  -0.09090909,   0.00000000], 0.00826446],  # 4
    [[ -0.45454545,   0.00000000,   0.00000000], 0.00826446],  # 5
    [[ -0.45454545,   0.09090909,   0.00000000], 0.00826446],  # 6
    [[ -0.45454545,   0.18181818,   0.00000000], 0.00826446],  # 7
    [[ -0.45454545,   0.27272727,   0.00000000], 0.00826446],  # 8
    [[ -0.45454545,   0.36363636,   0.00000000], 0.00826446],  # 9
    # ...
    [[  0.45454545,   0.45454545,   0.00000000], 0.00826446]]  # 120

plane wave coefficients: 7719
cutoff: 600.0 eV

spin-components: 4  # (non-collinear spins)
bands: 42
valence electrons: 29.0
spin-degeneracy: 1
dtype: complex128

memory:
    wave functions: 1_248_301_824  # bytes  (104_025_152 per core)

parallelization:
    kpt:    12
    domain: 1
    band:   1

density:
  components: 4
  grid points: [24 24 90]
  charge: 0.0  # |e|

potential:
  grid points: [24 24 90]

species:
  Mn:
    name: Manganese
    id: 0d715a8018be061a6e9ea6f2d364ac92
    Z: 25.0
    valence: 15
    core: 10
    charge: 0.0
    file: /zhome/86/d/1666/PAW/gpaw-setups-0.9.20000/Mn.LDA.gz
    compensation charges: {type: gauss,
                           rc: 0.38,
                           lmax: 2}
    cutoffs: {filter: 2.14,
              core: 0.86}
    valence states:
      #              energy  rcut
      - 3s(2.00)   -85.387   1.275
      - 4s(2.00)    -5.282   1.275
      - 3p(6.00)   -54.493   1.281
      - 4p(0.00)    -1.471   1.281
      - 3d(5.00)    -7.009   1.138
      -  d          20.203   1.138
  
    # Using partial waves for Mn as LCAO basis

  I:
    name: Iodine
    id: b559721c0c096a7b4c8fc0e0f4de5cf4
    Z: 53.0
    valence: 7
    core: 46
    charge: 0.0
    file: /zhome/86/d/1666/PAW/gpaw-setups-0.9.20000/I.LDA.gz
    compensation charges: {type: gauss,
                           rc: 0.37,
                           lmax: 2}
    cutoffs: {filter: 2.06,
              core: 2.90}
    valence states:
      #              energy  rcut
      - 5s(2.00)   -17.626   1.164
      - 5p(5.00)    -7.241   1.164
      -  s           9.585   1.164
      -  p          19.970   1.164
      -  d           0.000   1.164
  
    # Using partial waves for I as LCAO basis

Reference energy: -418222.442431  # eV

eigensolver:
  name: 'Davidson'
  niter: 2
  converge_bands: 'occupied'
Density mixing:
  Method: sum
  Backend: pulay
  Linear mixing parameter: 0.05
  old densities: 5
  Damping of long wavelength oscillations: 100
occupation numbers:
  Fermi-Dirac:
    width: 0.1000  # eV
  

poisson solver:
  ecut: 4800.0  # eV

xc functional:
  name: None

convergence criteria:
- Maximum [total energy] change in last 3 cyles: 0.0005 eV / valence electron
- Maximum integral of absolute [dens]ity change: 0.0001 electrons / valence electron
- Maximum integral of absolute [eigenst]ate change: 4e-08 eV^2 / valence electron
maximum number of iterations: 333

#      iter     time        total  log10-change:
#                          energy   eigst   dens
# iter:   1 07:56:56   -14.757157                  +4.6,+0.0,+0.0
# iter:   2 07:57:11   -15.150127   -0.15  -1.49   +4.1,-0.0,+0.0
# iter:   3 07:57:27   -15.138020   -0.77  -1.52   +4.1,-0.0,+0.0
# iter:   4 07:57:42   -15.153739   -1.07  -1.56   +4.2,-0.0,+0.0
# iter:   5 07:57:58   -15.244815   -1.37  -1.76   +4.4,-0.0,+0.0
# iter:   6 07:58:13   -15.157021   -1.65  -2.16   +4.4,+0.0,+0.0
# iter:   7 07:58:28   -15.158125   -1.63  -2.29   +4.4,+0.0,+0.0
# iter:   8 07:58:44   -15.139010   -2.17  -2.16   +4.3,+0.0,+0.0
# iter:   9 07:58:59   -15.139130   -2.46  -2.92   +4.4,+0.0,+0.0
# iter:  10 07:59:14   -15.140666c  -2.66  -3.04   +4.4,+0.0,+0.0
# iter:  11 07:59:30   -15.139179c  -2.84  -2.92   +4.4,+0.0,+0.0
# iter:  12 07:59:45   -15.139278c  -3.08  -3.42   +4.4,+0.0,+0.0
# iter:  13 08:00:00   -15.139313c  -3.28  -3.50   +4.4,+0.0,+0.0
# iter:  14 08:00:16   -15.139405c  -3.44  -3.54   +4.4,+0.0,+0.0
# iter:  15 08:00:31   -15.139378c  -3.63  -3.57   +4.4,+0.0,+0.0
# iter:  16 08:00:46   -15.139376c  -3.80  -3.66   +4.4,+0.0,+0.0
# iter:  17 08:01:02   -15.139400c  -3.96  -3.71   +4.4,+0.0,+0.0
# iter:  18 08:01:17   -15.139375c  -4.13  -3.93   +4.4,+0.0,+0.0
# iter:  19 08:01:32   -15.139375c  -4.30  -4.18c  +4.4,+0.0,+0.0
# iter:  20 08:01:48   -15.139376c  -4.46  -4.27c  +4.4,+0.0,+0.0
# iter:  21 08:02:03   -15.139373c  -4.60  -4.42c  +4.4,+0.0,+0.0
# iter:  22 08:02:18   -15.139373c  -4.77  -4.33c  +4.4,+0.0,+0.0
# iter:  23 08:02:34   -15.139373c  -4.92  -4.40c  +4.4,+0.0,+0.0
# iter:  24 08:02:49   -15.139374c  -5.05  -4.34c  +4.4,+0.0,+0.0
# iter:  25 08:03:04   -15.139374c  -5.20  -4.53c  +4.4,+0.0,+0.0
# iter:  26 08:03:20   -15.139375c  -5.34  -4.49c  +4.4,+0.0,+0.0
# iter:  27 08:03:35   -15.139375c  -5.48  -4.58c  +4.4,+0.0,+0.0
# iter:  28 08:03:50   -15.139376c  -5.63  -4.56c  +4.4,+0.0,+0.0
# iter:  29 08:04:06   -15.139376c  -5.76  -4.53c  +4.4,+0.0,+0.0
# iter:  30 08:04:21   -15.139375c  -5.90  -4.59c  +4.4,+0.0,+0.0
# iter:  31 08:04:36   -15.139377c  -6.01  -4.58c  +4.4,+0.0,+0.0
# iter:  32 08:04:51   -15.139377c  -6.14  -4.51c  +4.4,+0.0,+0.0
# iter:  33 08:05:07   -15.139376c  -6.28  -5.23c  +4.4,+0.0,+0.0
# iter:  34 08:05:22   -15.139376c  -6.41  -5.63c  +4.4,+0.0,+0.0
# iter:  35 08:05:38   -15.139376c  -6.52  -5.64c  +4.4,+0.0,+0.0
# iter:  36 08:05:53   -15.139376c  -6.64  -5.68c  +4.4,+0.0,+0.0
# iter:  37 08:06:08   -15.139376c  -6.76  -5.72c  +4.4,+0.0,+0.0
# iter:  38 08:06:23   -15.139376c  -6.88  -5.78c  +4.4,+0.0,+0.0
# iter:  39 08:06:39   -15.139376c  -7.00  -5.83c  +4.4,+0.0,+0.0
# iter:  40 08:06:54   -15.139376c  -7.11  -5.91c  +4.4,+0.0,+0.0
# iter:  41 08:07:09   -15.139376c  -7.23  -6.13c  +4.4,+0.0,+0.0
# iter:  42 08:07:25   -15.139376c  -7.35  -6.18c  +4.4,+0.0,+0.0
# iter:  43 08:07:40   -15.139376c  -7.46c -6.40c  +4.4,+0.0,+0.0
scf_steps: 43
energies:  # eV
  coulomb:         -12.510904
  zero:              0.093254
  xc:              -17.148083
  external:          0.000000
  kinetic:          14.426927
  spinorbit:         0.000000
  entropy:          -0.001142
  total:           -15.139947
  extrapolated:    -15.139376

dipole moment: [-4.592285, -8.502761, -9.541415]  # |e|*Ang

total magnetic moment: [4.373423, 0.001210, 0.000000]

local magnetic moments: [
  [ 4.326358, -0.000025,  0.000000],  # Mn 0
  [-0.019868,  0.000000, -0.000000],  # I  1
  [ 0.018307, -0.007717, -0.000000]]  # I  2


Fermi level: -1.212 eV

kpt = [-0.455, -0.455, 0.000], weight = 0.008:
  Band      eig [eV]   occ [0-1]
     0       -82.173       1.000
   ...
    21        -4.167       1.000
    22        -3.973       1.000
    23        -3.814       1.000
    24        -3.722       1.000
    25        -3.531       1.000
    26        -3.463       1.000
    27        -2.291       1.000
    28        -2.100       1.000
    29        -0.338       0.000
    30        -0.227       0.000
    31        -0.145       0.000
    32         0.387       0.000
    33         0.550       0.000
    34         1.735       0.000
    35         2.494       0.000
    36         3.765       0.000
   ...
    41         4.963       0.000

kpt = [-0.455, -0.364, 0.000], weight = 0.008:
  Band      eig [eV]   occ [0-1]
     0       -82.173       1.000
   ...
    21        -4.049       1.000
    22        -3.811       1.000
    23        -3.803       1.000
    24        -3.643       1.000
    25        -3.466       1.000
    26        -3.362       1.000
    27        -2.311       1.000
    28        -2.024       1.000
    29        -0.364       0.000
    30        -0.248       0.000
    31        -0.153       0.000
    32         0.390       0.000
    33         0.543       0.000
    34         1.665       0.000
    35         2.409       0.000
    36         3.369       0.000
   ...
    41         5.104       0.000

kpt = [-0.455, -0.273, 0.000], weight = 0.008:
  Band      eig [eV]   occ [0-1]
     0       -82.173       1.000
   ...
    21        -3.913       1.000
    22        -3.672       1.000
    23        -3.601       1.000
    24        -3.545       1.000
    25        -3.405       1.000
    26        -3.219       1.000
    27        -2.383       1.000
    28        -1.912       0.999
    29        -0.416       0.000
    30        -0.214       0.000
    31        -0.198       0.000
    32         0.329       0.000
    33         0.561       0.000
    34         1.693       0.000
    35         2.456       0.000
    36         3.121       0.000
   ...
    41         4.996       0.000
(only showing first 3 out of 121 k-points)

Gap: 1.283 eV
Transition (v -> c):
  (s=0, k=60, n=28, [0.00, 0.00, 0.00]) -> (s=0, k=60, n=29, [0.00, 0.00, 0.00])
# Writing to Band/gsq-44.gpw (mode='')

---

timing:  # [seconds]
  Total: 669.687  # ━━━━━━━━━━━━━━━━━━━━━━━━━━━━━━━━━━━━━━━━━━━━━━━━━━━━━━━━━
  Init:   10.272  # ━
  SCF:   659.074  # ━━━━━━━━━━━━━━━━━━━━━━━━━━━━━━━━━━━━━━━━━━━━━━━━━━━━━━━━

Max RSS: 1391.699  # MiB
