#  __  _  _
# | _ |_)|_||  |
# |__||  | ||/\| - 24.1.0

User:   s194113@n-62-29-21
Date:   Sat Apr 27 13:03:49 2024
Arch:   x86_64
Pid:    5028
CWD:    /work3/s194113/10302/10302_NM/MnI2
Python: 3.8.5
gpaw:   /zhome/87/8/147075/venv-name/gpaw/gpaw (10808453a8)
_gpaw:  /zhome/87/8/147075/venv-name/gpaw/
        _gpaw.cpython-38-x86_64-linux-gnu.so (10808453a8)
ase:    /zhome/87/8/147075/venv-name/ase/ase (version 3.23.0b1-c36115a2db)
numpy:  /zhome/87/8/147075/venv-name/lib/python3.8/site-packages/numpy (version 1.24.4)
scipy:  /zhome/87/8/147075/venv-name/lib/python3.8/site-packages/scipy (version 1.10.1)
libxc:  4.3.4
units:  Angstrom and eV
cores: 12
OpenMP: False
OMP_NUM_THREADS: 1

---
input parameters:
  kpts: 
    density: 6.0
    gamma: True
  magmoms: [[4.4079912, 0, 0], [0.08032672, 0, 0], [0.08032672, 0, 0]]
  mixer: 
    backend: 'pulay'
    beta: 0.05
    method: 'sum'
    nmaxold: 5
    weight: 100
  mode: 
    name: 'pw'
    ecut: 600.0
    qspiral: array([0.21705426, 0.21705426, 0.        ])
  parallel: 
    kpt: None
    domain: 1
    band: 1
    order: 'kdb'
    stridebands: False
    augment_grids: False
    sl_auto: False
    sl_default: None
    sl_diagonalize: None
    sl_inverse_cholesky: None
    sl_lcao: None
    sl_lrtddft: None
    use_elpa: False
    elpasolver: '2stage'
    buffer_size: None
    gpu: False
  symmetry: 
    point_group: False
    time_reversal: False
  xc: 
    name: 'LDA'

#                        
#                        
#                        
#                        
#              I         
#                        
#                        
#        Mn              
#          I             
#                        
#                        
#                        
#                        
#                        

atoms: [  # symbols, positions [Ang] and initial magnetic moments
  [ Mn, [   0.000000,    0.000000,    7.649535], [ 4.408,  0.000,  0.000]], # 0
  [  I, [   2.082858,    1.202539,    9.299069], [ 0.080,  0.000,  0.000]], # 1
  [  I, [   0.000000,    2.405077,    6.000000], [ 0.080,  0.000,  0.000]]] # 2

cell: [  # Ang
#     x            y            z
  [   4.165716,    0.000000,    0.000000],
  [  -2.082858,    3.607616,    0.000000],
  [   0.000000,    0.000000,   15.299069]]

periodic: [True      , True      , False     ]
lengths:  [  4.165716,   4.165716,  15.299069]  # Ang
angles:   [ 90.000000,  90.000000, 120.000000]

symmetry:
  number of symmetries: 1
  rotations: [
    [[ 1,  0,  0], [ 0,  1,  0], [ 0,  0,  1]]]

bz sampling:
  number of bz points: 121
  number of ibz points: 121
  monkhorst-pack size: [11, 11, 1]
  monkhorst-pack shift: [0, 0, 0]
  points and weights: [
    [[ -0.45454545,  -0.45454545,   0.00000000], 0.00826446],  # 0
    [[ -0.45454545,  -0.36363636,   0.00000000], 0.00826446],  # 1
    [[ -0.45454545,  -0.27272727,   0.00000000], 0.00826446],  # 2
    [[ -0.45454545,  -0.18181818,   0.00000000], 0.00826446],  # 3
    [[ -0.45454545,  -0.09090909,   0.00000000], 0.00826446],  # 4
    [[ -0.45454545,   0.00000000,   0.00000000], 0.00826446],  # 5
    [[ -0.45454545,   0.09090909,   0.00000000], 0.00826446],  # 6
    [[ -0.45454545,   0.18181818,   0.00000000], 0.00826446],  # 7
    [[ -0.45454545,   0.27272727,   0.00000000], 0.00826446],  # 8
    [[ -0.45454545,   0.36363636,   0.00000000], 0.00826446],  # 9
    # ...
    [[  0.45454545,   0.45454545,   0.00000000], 0.00826446]]  # 120

plane wave coefficients: 7719
cutoff: 600.0 eV

spin-components: 4  # (non-collinear spins)
bands: 42
valence electrons: 29.0
spin-degeneracy: 1
dtype: complex128

memory:
    wave functions: 1_248_301_824  # bytes  (104_025_152 per core)

parallelization:
    kpt:    12
    domain: 1
    band:   1

density:
  components: 4
  grid points: [24 24 90]
  charge: 0.0  # |e|

potential:
  grid points: [24 24 90]

species:
  Mn:
    name: Manganese
    id: 0d715a8018be061a6e9ea6f2d364ac92
    Z: 25.0
    valence: 15
    core: 10
    charge: 0.0
    file: /zhome/86/d/1666/PAW/gpaw-setups-0.9.20000/Mn.LDA.gz
    compensation charges: {type: gauss,
                           rc: 0.38,
                           lmax: 2}
    cutoffs: {filter: 2.14,
              core: 0.86}
    valence states:
      #              energy  rcut
      - 3s(2.00)   -85.387   1.275
      - 4s(2.00)    -5.282   1.275
      - 3p(6.00)   -54.493   1.281
      - 4p(0.00)    -1.471   1.281
      - 3d(5.00)    -7.009   1.138
      -  d          20.203   1.138
  
    # Using partial waves for Mn as LCAO basis

  I:
    name: Iodine
    id: b559721c0c096a7b4c8fc0e0f4de5cf4
    Z: 53.0
    valence: 7
    core: 46
    charge: 0.0
    file: /zhome/86/d/1666/PAW/gpaw-setups-0.9.20000/I.LDA.gz
    compensation charges: {type: gauss,
                           rc: 0.37,
                           lmax: 2}
    cutoffs: {filter: 2.06,
              core: 2.90}
    valence states:
      #              energy  rcut
      - 5s(2.00)   -17.626   1.164
      - 5p(5.00)    -7.241   1.164
      -  s           9.585   1.164
      -  p          19.970   1.164
      -  d           0.000   1.164
  
    # Using partial waves for I as LCAO basis

Reference energy: -418222.442431  # eV

eigensolver:
  name: 'Davidson'
  niter: 2
  converge_bands: 'occupied'
Density mixing:
  Method: sum
  Backend: pulay
  Linear mixing parameter: 0.05
  old densities: 5
  Damping of long wavelength oscillations: 100
occupation numbers:
  Fermi-Dirac:
    width: 0.1000  # eV
  

poisson solver:
  ecut: 4800.0  # eV

xc functional:
  name: None

convergence criteria:
- Maximum [total energy] change in last 3 cyles: 0.0005 eV / valence electron
- Maximum integral of absolute [dens]ity change: 0.0001 electrons / valence electron
- Maximum integral of absolute [eigenst]ate change: 4e-08 eV^2 / valence electron
maximum number of iterations: 333

#      iter     time        total  log10-change:
#                          energy   eigst   dens
# iter:   1 13:04:14   -15.006878                  +4.6,+0.0,+0.0
# iter:   2 13:04:29   -15.181487   -0.35  -1.49   +4.3,-0.0,-0.0
# iter:   3 13:04:45   -15.139109   -0.93  -1.52   +4.3,-0.0,+0.0
# iter:   4 13:05:00   -15.152206   -1.18  -1.57   +4.4,+0.0,-0.0
# iter:   5 13:05:15   -15.219079   -1.49  -1.76   +4.6,+0.0,-0.0
# iter:   6 13:05:31   -15.192908   -1.86  -2.21   +4.6,+0.0,-0.0
# iter:   7 13:05:46   -15.255045   -2.02  -2.24   +4.6,+0.0,-0.0
# iter:   8 13:06:02   -15.141010   -1.57  -2.09   +4.6,+0.0,-0.0
# iter:   9 13:06:17   -15.144925   -2.45  -2.79   +4.6,+0.0,-0.0
# iter:  10 13:06:32   -15.164937   -2.53  -2.64   +4.5,+0.0,-0.0
# iter:  11 13:06:47   -15.141039   -2.68  -2.40   +4.5,+0.0,-0.0
# iter:  12 13:07:03   -15.141720   -3.27  -2.86   +4.5,+0.0,-0.0
# iter:  13 13:07:18   -15.139660c  -3.23  -2.88   +4.5,+0.0,-0.0
# iter:  14 13:07:33   -15.139781c  -3.64  -3.28   +4.6,+0.0,-0.0
# iter:  15 13:07:49   -15.139826c  -3.85  -3.33   +4.6,+0.0,-0.0
# iter:  16 13:08:05   -15.139797c  -4.04  -3.42   +4.6,+0.0,-0.0
# iter:  17 13:08:20   -15.139842c  -4.19  -3.51   +4.6,+0.0,-0.0
# iter:  18 13:08:35   -15.139847c  -4.33  -3.58   +4.6,+0.0,-0.0
# iter:  19 13:08:51   -15.139850c  -4.45  -3.83   +4.6,+0.0,-0.0
# iter:  20 13:09:06   -15.139849c  -4.65  -4.01c  +4.6,+0.0,-0.0
# iter:  21 13:09:21   -15.139850c  -4.80  -4.17c  +4.6,+0.0,-0.0
# iter:  22 13:09:37   -15.139852c  -4.95  -4.33c  +4.6,+0.0,-0.0
# iter:  23 13:09:52   -15.139852c  -5.09  -4.47c  +4.6,+0.0,-0.0
# iter:  24 13:10:07   -15.139854c  -5.22  -4.36c  +4.6,+0.0,+0.0
# iter:  25 13:10:22   -15.139855c  -5.36  -4.53c  +4.6,+0.0,-0.0
# iter:  26 13:10:37   -15.139856c  -5.51  -4.57c  +4.6,+0.0,-0.0
# iter:  27 13:10:53   -15.139857c  -5.65  -4.63c  +4.6,+0.0,-0.0
# iter:  28 13:11:08   -15.139856c  -5.80  -4.69c  +4.6,+0.0,-0.0
# iter:  29 13:11:23   -15.139857c  -5.93  -4.80c  +4.6,+0.0,-0.0
# iter:  30 13:11:38   -15.139857c  -6.07  -4.84c  +4.6,+0.0,-0.0
# iter:  31 13:11:54   -15.139857c  -6.20  -4.86c  +4.6,+0.0,-0.0
# iter:  32 13:12:09   -15.139856c  -6.34  -4.95c  +4.6,+0.0,-0.0
# iter:  33 13:12:24   -15.139856c  -6.46  -5.08c  +4.6,+0.0,-0.0
# iter:  34 13:12:39   -15.139857c  -6.58  -5.19c  +4.6,+0.0,-0.0
# iter:  35 13:12:54   -15.139857c  -6.71  -5.26c  +4.6,+0.0,-0.0
# iter:  36 13:13:10   -15.139857c  -6.83  -5.42c  +4.6,+0.0,-0.0
# iter:  37 13:13:25   -15.139857c  -6.95  -5.50c  +4.6,+0.0,-0.0
# iter:  38 13:13:40   -15.139857c  -7.08  -5.60c  +4.6,+0.0,-0.0
# iter:  39 13:13:55   -15.139857c  -7.19  -5.66c  +4.6,+0.0,-0.0
# iter:  40 13:14:10   -15.139857c  -7.31  -5.66c  +4.6,+0.0,-0.0
# iter:  41 13:14:26   -15.139857c  -7.43c -5.79c  +4.6,+0.0,-0.0
scf_steps: 41
energies:  # eV
  coulomb:         -12.519378
  zero:              0.093077
  xc:              -17.152677
  external:          0.000000
  kinetic:          14.439637
  spinorbit:         0.000000
  entropy:          -0.001034
  total:           -15.140373
  extrapolated:    -15.139857

dipole moment: [-5.102485, -8.837762, -11.248073]  # |e|*Ang

total magnetic moment: [4.570947, 0.010204, -0.000000]

local magnetic moments: [
  [ 4.328910, -0.000317, -0.000000],  # Mn 0
  [ 0.006980, -0.033252, -0.000000],  # I  1
  [ 0.006979, -0.033252, -0.000000]]  # I  2


Fermi level: -1.228 eV

kpt = [-0.455, -0.455, 0.000], weight = 0.008:
  Band      eig [eV]   occ [0-1]
     0       -82.175       1.000
   ...
    21        -4.083       1.000
    22        -3.988       1.000
    23        -3.847       1.000
    24        -3.627       1.000
    25        -3.585       1.000
    26        -3.554       1.000
    27        -2.177       1.000
    28        -2.141       1.000
    29        -0.427       0.000
    30        -0.191       0.000
    31        -0.138       0.000
    32         0.439       0.000
    33         0.550       0.000
    34         1.542       0.000
    35         2.422       0.000
    36         3.453       0.000
   ...
    41         4.679       0.000

kpt = [-0.455, -0.364, 0.000], weight = 0.008:
  Band      eig [eV]   occ [0-1]
     0       -82.175       1.000
   ...
    21        -3.972       1.000
    22        -3.881       1.000
    23        -3.848       1.000
    24        -3.673       1.000
    25        -3.548       1.000
    26        -3.446       1.000
    27        -2.252       1.000
    28        -2.007       1.000
    29        -0.456       0.000
    30        -0.225       0.000
    31        -0.142       0.000
    32         0.493       0.000
    33         0.545       0.000
    34         1.375       0.000
    35         2.314       0.000
    36         2.976       0.000
   ...
    41         5.217       0.000

kpt = [-0.455, -0.273, 0.000], weight = 0.008:
  Band      eig [eV]   occ [0-1]
     0       -82.175       1.000
   ...
    21        -3.983       1.000
    22        -3.844       1.000
    23        -3.752       1.000
    24        -3.699       1.000
    25        -3.456       1.000
    26        -3.367       1.000
    27        -2.268       1.000
    28        -1.979       0.999
    29        -0.417       0.000
    30        -0.279       0.000
    31        -0.145       0.000
    32         0.441       0.000
    33         0.578       0.000
    34         1.457       0.000
    35         2.158       0.000
    36         3.111       0.000
   ...
    41         4.895       0.000
(only showing first 3 out of 121 k-points)

Gap: 1.324 eV
Transition (v -> c):
  (s=0, k=38, n=28, [-0.18, 0.00, 0.00]) -> (s=0, k=5, n=29, [-0.45, 0.00, 0.00])
# Writing to Band/gsq-72.gpw (mode='')

---

timing:  # [seconds]
  Total: 637.411  # ━━━━━━━━━━━━━━━━━━━━━━━━━━━━━━━━━━━━━━━━━━━━━━━━━━━━━━━━━
  Init:   10.125  # ━
  SCF:   626.891  # ━━━━━━━━━━━━━━━━━━━━━━━━━━━━━━━━━━━━━━━━━━━━━━━━━━━━━━━━

Max RSS: 1876.633  # MiB
