#  __  _  _
# | _ |_)|_||  |
# |__||  | ||/\| - 24.1.0

User:   s194099@n-62-29-15
Date:   Wed Apr 17 15:04:53 2024
Arch:   x86_64
Pid:    22110
CWD:    /zhome/84/5/147090/10302_NM/VBr2
Python: 3.8.5
gpaw:   /zhome/84/5/147090/venv1/gpaw/gpaw (10808453a8)
_gpaw:  /zhome/84/5/147090/venv1/gpaw/
        _gpaw.cpython-38-x86_64-linux-gnu.so (10808453a8)
ase:    /zhome/84/5/147090/venv1/ase/ase (version 3.23.0b1-c36115a2db)
numpy:  /zhome/84/5/147090/venv1/lib/python3.8/site-packages/numpy (version 1.24.4)
scipy:  /zhome/84/5/147090/venv1/lib/python3.8/site-packages/scipy (version 1.10.1)
libxc:  4.3.4
units:  Angstrom and eV
cores: 12
OpenMP: False
OMP_NUM_THREADS: 1

---
input parameters:
  kpts: 
    density: 6.0
    gamma: True
  magmoms: [[1, 0, 0], [0, 0, 0], [0, 0, 0]]
  mixer: 
    backend: 'pulay'
    beta: 0.05
    method: 'sum'
    nmaxold: 5
    weight: 100
  mode: 
    name: 'pw'
    ecut: 600
    qspiral: array([0.44444444, 0.11111111, 0.        ])
  parallel: 
    kpt: None
    domain: 1
    band: 1
    order: 'kdb'
    stridebands: False
    augment_grids: False
    sl_auto: False
    sl_default: None
    sl_diagonalize: None
    sl_inverse_cholesky: None
    sl_lcao: None
    sl_lrtddft: None
    use_elpa: False
    elpasolver: '2stage'
    buffer_size: None
    gpu: False
  symmetry: 
    point_group: False
    time_reversal: False
  xc: 
    name: 'LDA'

#                        
#                        
#                        
#                        
#                        
#              Br        
#                        
#        V               
#          Br            
#                        
#                        
#                        
#                        
#                        

atoms: [  # symbols, positions [Ang] and initial magnetic moments
  [  V, [   0.000000,    0.000000,    7.513573], [ 1.000,  0.000,  0.000]], # 0
  [ Br, [   1.984831,    1.145943,    9.027147], [ 0.000,  0.000,  0.000]], # 1
  [ Br, [  -0.000000,    2.291886,    6.000000], [ 0.000,  0.000,  0.000]]] # 2

cell: [  # Ang
#     x            y            z
  [   3.969662,    0.000000,    0.000000],
  [  -1.984831,    3.437828,    0.000000],
  [   0.000000,   -0.000000,   15.027147]]

periodic: [True      , True      , False     ]
lengths:  [  3.969662,   3.969662,  15.027147]  # Ang
angles:   [ 90.000000,  90.000000, 120.000000]

symmetry:
  number of symmetries: 1
  rotations: [
    [[ 1,  0,  0], [ 0,  1,  0], [ 0,  0,  1]]]

bz sampling:
  number of bz points: 121
  number of ibz points: 121
  monkhorst-pack size: [11, 11, 1]
  monkhorst-pack shift: [0, 0, 0]
  points and weights: [
    [[ -0.45454545,  -0.45454545,   0.00000000], 0.00826446],  # 0
    [[ -0.45454545,  -0.36363636,   0.00000000], 0.00826446],  # 1
    [[ -0.45454545,  -0.27272727,   0.00000000], 0.00826446],  # 2
    [[ -0.45454545,  -0.18181818,   0.00000000], 0.00826446],  # 3
    [[ -0.45454545,  -0.09090909,   0.00000000], 0.00826446],  # 4
    [[ -0.45454545,   0.00000000,   0.00000000], 0.00826446],  # 5
    [[ -0.45454545,   0.09090909,   0.00000000], 0.00826446],  # 6
    [[ -0.45454545,   0.18181818,   0.00000000], 0.00826446],  # 7
    [[ -0.45454545,   0.27272727,   0.00000000], 0.00826446],  # 8
    [[ -0.45454545,   0.36363636,   0.00000000], 0.00826446],  # 9
    # ...
    [[  0.45454545,   0.45454545,   0.00000000], 0.00826446]]  # 120

plane wave coefficients: 6874
cutoff: 600.0 eV

spin-components: 4  # (non-collinear spins)
bands: 42
valence electrons: 27.0
spin-degeneracy: 1
dtype: complex128

memory:
    wave functions: 1_113_974_400  # bytes  (92_831_200 per core)

parallelization:
    kpt:    12
    domain: 1
    band:   1

density:
  components: 4
  grid points: [24 24 90]
  charge: 0.0  # |e|

potential:
  grid points: [24 24 90]

species:
  V:
    name: Vanadium
    id: 7939ce69e6bb5930668dfcf9bb1979c3
    Z: 23.0
    valence: 13
    core: 10
    charge: 0.0
    file: /zhome/86/d/1666/PAW/gpaw-setups-0.9.20000/V.LDA.gz
    compensation charges: {type: gauss,
                           rc: 0.37,
                           lmax: 2}
    cutoffs: {filter: 2.14,
              core: 0.96}
    valence states:
      #              energy  rcut
      - 3s(2.00)   -69.819   1.254
      - 4s(2.00)    -4.846   1.254
      - 3p(6.00)   -43.961   1.281
      - 4p(0.00)    -1.526   1.281
      - 3d(3.00)    -5.381   1.169
      -  d          21.830   1.169
  
    # Using partial waves for V as LCAO basis

  Br:
    name: Bromine
    id: 10a25bbcb3273ec7d8d7f6fc01d2618d
    Z: 35.0
    valence: 7
    core: 28
    charge: 0.0
    file: /zhome/86/d/1666/PAW/gpaw-setups-0.9.20000/Br.LDA.gz
    compensation charges: {type: gauss,
                           rc: 0.35,
                           lmax: 2}
    cutoffs: {filter: 1.98,
              core: 2.38}
    valence states:
      #              energy  rcut
      - 4s(2.00)   -20.306   1.111
      - 4p(5.00)    -8.003   1.111
      -  s           6.906   1.111
      -  p          19.208   1.111
      -  d           0.000   1.111
  
    # Using partial waves for Br as LCAO basis

Reference energy: -167392.690611  # eV

eigensolver:
  name: 'Davidson'
  niter: 2
  converge_bands: 'occupied'
Density mixing:
  Method: sum
  Backend: pulay
  Linear mixing parameter: 0.05
  old densities: 5
  Damping of long wavelength oscillations: 100
occupation numbers:
  Fermi-Dirac:
    width: 0.1000  # eV
  

poisson solver:
  ecut: 4800.0  # eV

xc functional:
  name: None

convergence criteria:
- Maximum [total energy] change in last 3 cyles: 0.0005 eV / valence electron
- Maximum integral of absolute [dens]ity change: 0.0001 electrons / valence electron
- Maximum integral of absolute [eigenst]ate change: 4e-08 eV^2 / valence electron
maximum number of iterations: 333

#      iter     time        total  log10-change:
#                          energy   eigst   dens
# iter:   1 15:05:22   -14.040823                  +1.0,+0.0,+0.0
# iter:   2 15:05:39   -14.792884   +0.07  -1.45   +1.5,-0.0,+0.0
# iter:   3 15:05:57   -14.920471   -0.73  -1.47   +1.7,-0.0,+0.0
# iter:   4 15:06:14   -15.098289   -1.34  -1.54   +2.0,-0.0,+0.0
# iter:   5 15:06:32   -15.308342   -1.89  -1.68   +2.5,-0.0,-0.0
# iter:   6 15:06:49   -15.303331   -2.08  -2.02   +2.6,-0.0,-0.0
# iter:   7 15:07:07   -15.307319c  -2.47  -2.31   +2.7,-0.0,-0.0
# iter:   8 15:07:24   -15.303645c  -2.98  -2.56   +2.7,-0.0,-0.0
# iter:   9 15:07:42   -15.304941c  -3.47  -2.73   +2.7,-0.0,+0.0
# iter:  10 15:07:59   -15.304743c  -4.04  -3.30   +2.7,-0.0,-0.0
# iter:  11 15:08:17   -15.304797c  -4.32  -3.59   +2.7,-0.0,-0.0
# iter:  12 15:08:34   -15.304821c  -4.57  -3.63   +2.7,-0.0,-0.0
# iter:  13 15:08:51   -15.304833c  -4.82  -3.72   +2.7,-0.0,-0.0
# iter:  14 15:09:09   -15.304838c  -5.07  -3.79   +2.7,-0.0,-0.0
# iter:  15 15:09:26   -15.304830c  -5.21  -3.90   +2.7,-0.0,+0.0
# iter:  16 15:09:43   -15.304827c  -5.50  -4.21c  +2.7,-0.0,+0.0
# iter:  17 15:10:01   -15.304827c  -5.79  -4.60c  +2.7,-0.0,+0.0
# iter:  18 15:10:18   -15.304828c  -6.03  -4.64c  +2.7,-0.0,+0.0
# iter:  19 15:10:35   -15.304827c  -6.26  -4.73c  +2.7,-0.0,+0.0
# iter:  20 15:10:52   -15.304828c  -6.48  -4.77c  +2.7,-0.0,+0.0
# iter:  21 15:11:09   -15.304828c  -6.70  -4.81c  +2.7,-0.0,+0.0
# iter:  22 15:11:26   -15.304827c  -6.92  -4.79c  +2.7,-0.0,+0.0
# iter:  23 15:11:43   -15.304827c  -7.14  -4.95c  +2.7,-0.0,+0.0
# iter:  24 15:12:01   -15.304827c  -7.35  -5.01c  +2.7,-0.0,+0.0
# iter:  25 15:12:18   -15.304827c  -7.57c -5.09c  +2.7,-0.0,+0.0
scf_steps: 25
energies:  # eV
  coulomb:           0.277788
  zero:              0.054123
  xc:              -14.616151
  external:          0.000000
  kinetic:          -1.014573
  spinorbit:         0.000000
  entropy:          -0.012029
  total:           -15.310841
  extrapolated:    -15.304827

dipole moment: [-4.648847, -8.490633, -8.387151]  # |e|*Ang

total magnetic moment: [2.734342, -0.000116, 0.000000]

local magnetic moments: [
  [ 2.600656,  0.000000,  0.000000],  # V  0
  [ 0.011056,  0.000027,  0.000000],  # Br 1
  [-0.010380,  0.003807,  0.000000]]  # Br 2


Fermi level: -1.208 eV

kpt = [-0.455, -0.455, 0.000], weight = 0.008:
  Band      eig [eV]   occ [0-1]
     0       -65.923       1.000
   ...
    19        -5.309       1.000
    20        -5.281       1.000
    21        -5.123       1.000
    22        -5.053       1.000
    23        -4.886       1.000
    24        -1.921       0.999
    25        -1.745       0.995
    26        -1.683       0.991
    27        -0.658       0.004
    28        -0.524       0.001
    29         0.354       0.000
    30         0.435       0.000
    31         0.612       0.000
    32         0.913       0.000
    33         0.965       0.000
    34         2.898       0.000
   ...
    41         5.637       0.000

kpt = [-0.455, -0.364, 0.000], weight = 0.008:
  Band      eig [eV]   occ [0-1]
     0       -65.923       1.000
   ...
    19        -5.300       1.000
    20        -5.238       1.000
    21        -5.051       1.000
    22        -4.926       1.000
    23        -4.766       1.000
    24        -1.934       0.999
    25        -1.786       0.997
    26        -1.706       0.993
    27        -0.699       0.006
    28        -0.534       0.001
    29         0.381       0.000
    30         0.441       0.000
    31         0.615       0.000
    32         0.811       0.000
    33         0.941       0.000
    34         2.729       0.000
   ...
    41         5.760       0.000

kpt = [-0.455, -0.273, 0.000], weight = 0.008:
  Band      eig [eV]   occ [0-1]
     0       -65.923       1.000
   ...
    19        -5.276       1.000
    20        -5.159       1.000
    21        -4.849       1.000
    22        -4.752       1.000
    23        -4.650       1.000
    24        -1.955       0.999
    25        -1.783       0.997
    26        -1.756       0.996
    27        -0.772       0.013
    28        -0.526       0.001
    29         0.359       0.000
    30         0.483       0.000
    31         0.527       0.000
    32         0.691       0.000
    33         0.913       0.000
    34         2.706       0.000
   ...
    41         5.076       0.000
(only showing first 3 out of 121 k-points)

Gap: 0.800 eV
Transition (v -> c):
  (s=0, k=60, n=26, [0.00, 0.00, 0.00]) -> (s=0, k=57, n=27, [0.00, -0.27, 0.00])
# Writing to gsq-12.gpw (mode='')

---

timing:  # [seconds]
  Total: 445.615  # ━━━━━━━━━━━━━━━━━━━━━━━━━━━━━━━━━━━━━━━━━━━━━━━━━━━━━━━━━
  Init:   12.036  # ━╸
  SCF:   432.294  # ━━━━━━━━━━━━━━━━━━━━━━━━━━━━━━━━━━━━━━━━━━━━━━━━━━━━━━━╸

Max RSS: 610.891  # MiB
