#  __  _  _
# | _ |_)|_||  |
# |__||  | ||/\| - 24.1.0

User:   s194113@n-62-28-31
Date:   Thu Apr 18 15:30:35 2024
Arch:   x86_64
Pid:    12758
CWD:    /zhome/87/8/147075/10302/10302_NM/VBr2
Python: 3.8.5
gpaw:   /zhome/87/8/147075/venv-name/gpaw/gpaw (10808453a8)
_gpaw:  /zhome/87/8/147075/venv-name/gpaw/
        _gpaw.cpython-38-x86_64-linux-gnu.so (10808453a8)
ase:    /zhome/87/8/147075/venv-name/ase/ase (version 3.23.0b1-c36115a2db)
numpy:  /zhome/87/8/147075/venv-name/lib/python3.8/site-packages/numpy (version 1.24.4)
scipy:  /zhome/87/8/147075/venv-name/lib/python3.8/site-packages/scipy (version 1.10.1)
libxc:  4.3.4
units:  Angstrom and eV
cores: 12
OpenMP: False
OMP_NUM_THREADS: 1

---
input parameters:
  kpts: 
    density: 6.0
    gamma: True
  magmoms: [[1, 0, 0], [0, 0, 0], [0, 0, 0]]
  mixer: 
    backend: 'pulay'
    beta: 0.05
    method: 'sum'
    nmaxold: 5
    weight: 100
  mode: 
    name: 'pw'
    ecut: 600
    qspiral: array([0.19047619, 0.19047619, 0.        ])
  parallel: 
    kpt: None
    domain: 1
    band: 1
    order: 'kdb'
    stridebands: False
    augment_grids: False
    sl_auto: False
    sl_default: None
    sl_diagonalize: None
    sl_inverse_cholesky: None
    sl_lcao: None
    sl_lrtddft: None
    use_elpa: False
    elpasolver: '2stage'
    buffer_size: None
    gpu: False
  symmetry: 
    point_group: False
    time_reversal: False
  xc: 
    name: 'LDA'

#                        
#                        
#                        
#                        
#                        
#              Br        
#                        
#        V               
#          Br            
#                        
#                        
#                        
#                        
#                        

atoms: [  # symbols, positions [Ang] and initial magnetic moments
  [  V, [   0.000000,    0.000000,    7.513573], [ 1.000,  0.000,  0.000]], # 0
  [ Br, [   1.920000,    1.108513,    9.027147], [ 0.000,  0.000,  0.000]], # 1
  [ Br, [  -0.000000,    2.217025,    6.000000], [ 0.000,  0.000,  0.000]]] # 2

cell: [  # Ang
#     x            y            z
  [   3.840000,    0.000000,    0.000000],
  [  -1.920000,    3.325538,    0.000000],
  [   0.000000,   -0.000000,   15.027147]]

periodic: [True      , True      , False     ]
lengths:  [  3.840000,   3.840000,  15.027147]  # Ang
angles:   [ 90.000000,  90.000000, 120.000000]

symmetry:
  number of symmetries: 1
  rotations: [
    [[ 1,  0,  0], [ 0,  1,  0], [ 0,  0,  1]]]

bz sampling:
  number of bz points: 144
  number of ibz points: 144
  monkhorst-pack size: [12, 12, 1]
  monkhorst-pack shift: [0.041666666666666664, 0.041666666666666664, 0.0]
  points and weights: [
    [[ -0.41666667,  -0.41666667,   0.00000000], 0.00694444],  # 0
    [[ -0.41666667,  -0.33333333,   0.00000000], 0.00694444],  # 1
    [[ -0.41666667,  -0.25000000,   0.00000000], 0.00694444],  # 2
    [[ -0.41666667,  -0.16666667,   0.00000000], 0.00694444],  # 3
    [[ -0.41666667,  -0.08333333,   0.00000000], 0.00694444],  # 4
    [[ -0.41666667,  -0.00000000,   0.00000000], 0.00694444],  # 5
    [[ -0.41666667,   0.08333333,   0.00000000], 0.00694444],  # 6
    [[ -0.41666667,   0.16666667,   0.00000000], 0.00694444],  # 7
    [[ -0.41666667,   0.25000000,   0.00000000], 0.00694444],  # 8
    [[ -0.41666667,   0.33333333,   0.00000000], 0.00694444],  # 9
    # ...
    [[  0.50000000,   0.50000000,   0.00000000], 0.00694444]]  # 143

plane wave coefficients: 6439
cutoff: 600.0 eV

spin-components: 4  # (non-collinear spins)
bands: 42
valence electrons: 27.0
spin-degeneracy: 1
dtype: complex128

memory:
    wave functions: 1_238_243_328  # bytes  (103_186_944 per core)

parallelization:
    kpt:    12
    domain: 1
    band:   1

density:
  components: 4
  grid points: [24 24 90]
  charge: 0.0  # |e|

potential:
  grid points: [24 24 90]

species:
  V:
    name: Vanadium
    id: 7939ce69e6bb5930668dfcf9bb1979c3
    Z: 23.0
    valence: 13
    core: 10
    charge: 0.0
    file: /zhome/86/d/1666/PAW/gpaw-setups-0.9.20000/V.LDA.gz
    compensation charges: {type: gauss,
                           rc: 0.37,
                           lmax: 2}
    cutoffs: {filter: 2.14,
              core: 0.96}
    valence states:
      #              energy  rcut
      - 3s(2.00)   -69.819   1.254
      - 4s(2.00)    -4.846   1.254
      - 3p(6.00)   -43.961   1.281
      - 4p(0.00)    -1.526   1.281
      - 3d(3.00)    -5.381   1.169
      -  d          21.830   1.169
  
    # Using partial waves for V as LCAO basis

  Br:
    name: Bromine
    id: 10a25bbcb3273ec7d8d7f6fc01d2618d
    Z: 35.0
    valence: 7
    core: 28
    charge: 0.0
    file: /zhome/86/d/1666/PAW/gpaw-setups-0.9.20000/Br.LDA.gz
    compensation charges: {type: gauss,
                           rc: 0.35,
                           lmax: 2}
    cutoffs: {filter: 1.98,
              core: 2.38}
    valence states:
      #              energy  rcut
      - 4s(2.00)   -20.306   1.111
      - 4p(5.00)    -8.003   1.111
      -  s           6.906   1.111
      -  p          19.208   1.111
      -  d           0.000   1.111
  
    # Using partial waves for Br as LCAO basis

Reference energy: -167392.690611  # eV

eigensolver:
  name: 'Davidson'
  niter: 2
  converge_bands: 'occupied'
Density mixing:
  Method: sum
  Backend: pulay
  Linear mixing parameter: 0.05
  old densities: 5
  Damping of long wavelength oscillations: 100
occupation numbers:
  Fermi-Dirac:
    width: 0.1000  # eV
  

poisson solver:
  ecut: 4800.0  # eV

xc functional:
  name: None

convergence criteria:
- Maximum [total energy] change in last 3 cyles: 0.0005 eV / valence electron
- Maximum integral of absolute [dens]ity change: 0.0001 electrons / valence electron
- Maximum integral of absolute [eigenst]ate change: 4e-08 eV^2 / valence electron
maximum number of iterations: 333

#      iter     time        total  log10-change:
#                          energy   eigst   dens
# iter:   1 15:31:09   -14.778770                  +1.0,+0.0,+0.0
# iter:   2 15:31:30   -15.164109   -0.20  -1.42   +1.5,-0.0,-0.0
# iter:   3 15:31:51   -15.220376   -0.99  -1.46   +1.8,-0.0,-0.0
# iter:   4 15:32:11   -15.345323   -1.49  -1.56   +2.0,-0.0,-0.0
# iter:   5 15:32:32   -15.567470   -2.02  -1.68   +2.6,-0.0,-0.0
# iter:   6 15:32:52   -15.571320   -2.30  -2.07   +2.7,-0.0,-0.0
# iter:   7 15:33:13   -15.571822c  -2.83  -2.25   +2.7,-0.0,-0.0
# iter:   8 15:33:33   -15.570051c  -3.36  -2.62   +2.7,-0.0,-0.0
# iter:   9 15:33:54   -15.573192c  -3.54  -2.73   +2.8,-0.0,-0.0
# iter:  10 15:34:14   -15.572440c  -3.71  -2.72   +2.8,-0.0,-0.0
# iter:  11 15:34:35   -15.572437c  -4.44  -3.60   +2.8,-0.0,-0.0
# iter:  12 15:34:55   -15.572444c  -4.85  -3.60   +2.8,-0.0,-0.0
# iter:  13 15:35:15   -15.572479c  -5.13  -3.62   +2.8,-0.0,+0.0
# iter:  14 15:35:36   -15.572528c  -5.32  -3.69   +2.8,-0.0,-0.0
# iter:  15 15:35:56   -15.572531c  -5.49  -3.73   +2.8,-0.0,+0.0
# iter:  16 15:36:16   -15.572541c  -5.68  -3.99   +2.8,-0.0,+0.0
# iter:  17 15:36:37   -15.572535c  -5.98  -3.84   +2.8,-0.0,+0.0
# iter:  18 15:36:57   -15.572532c  -6.28  -4.14c  +2.8,-0.0,+0.0
# iter:  19 15:37:17   -15.572531c  -6.64  -4.26c  +2.8,-0.0,+0.0
# iter:  20 15:37:37   -15.572525c  -6.77  -4.28c  +2.8,-0.0,+0.0
# iter:  21 15:37:57   -15.572523c  -7.17  -4.52c  +2.8,-0.0,+0.0
# iter:  22 15:38:18   -15.572524c  -7.20  -4.60c  +2.8,-0.0,+0.0
# iter:  23 15:38:38   -15.572523c  -7.58c -4.64c  +2.8,-0.0,+0.0
scf_steps: 23
energies:  # eV
  coulomb:          -3.224234
  zero:              0.046802
  xc:              -15.794879
  external:          0.000000
  kinetic:           3.404270
  spinorbit:         0.000000
  entropy:          -0.008965
  total:           -15.577005
  extrapolated:    -15.572523

dipole moment: [-4.839429, -8.382044, -9.029570]  # |e|*Ang

total magnetic moment: [2.804023, -0.001606, 0.000000]

local magnetic moments: [
  [ 2.573772,  0.000000,  0.000000],  # V  0
  [-0.007293,  0.018385,  0.000000],  # Br 1
  [-0.007159,  0.018438,  0.000000]]  # Br 2


Fermi level: -0.722 eV

kpt = [-0.417, -0.417, 0.000], weight = 0.007:
  Band      eig [eV]   occ [0-1]
     0       -65.482       1.000
   ...
    19        -5.065       1.000
    20        -4.987       1.000
    21        -4.950       1.000
    22        -4.881       1.000
    23        -4.832       1.000
    24        -1.723       1.000
    25        -1.284       0.996
    26        -1.250       0.995
    27        -0.063       0.001
    28        -0.008       0.001
    29         0.545       0.000
    30         1.029       0.000
    31         1.039       0.000
    32         1.451       0.000
    33         1.489       0.000
    34         2.907       0.000
   ...
    41         6.121       0.000

kpt = [-0.417, -0.333, 0.000], weight = 0.007:
  Band      eig [eV]   occ [0-1]
     0       -65.482       1.000
   ...
    19        -5.078       1.000
    20        -5.051       1.000
    21        -4.924       1.000
    22        -4.848       1.000
    23        -4.810       1.000
    24        -1.658       1.000
    25        -1.366       0.998
    26        -1.253       0.995
    27        -0.139       0.003
    28         0.013       0.001
    29         0.686       0.000
    30         0.909       0.000
    31         1.042       0.000
    32         1.413       0.000
    33         1.481       0.000
    34         2.980       0.000
   ...
    41         6.027       0.000

kpt = [-0.417, -0.250, 0.000], weight = 0.007:
  Band      eig [eV]   occ [0-1]
     0       -65.482       1.000
   ...
    19        -5.179       1.000
    20        -5.060       1.000
    21        -5.020       1.000
    22        -4.765       1.000
    23        -4.702       1.000
    24        -1.548       1.000
    25        -1.460       0.999
    26        -1.241       0.994
    27        -0.152       0.003
    28        -0.041       0.001
    29         0.695       0.000
    30         0.817       0.000
    31         1.046       0.000
    32         1.352       0.000
    33         1.456       0.000
    34         3.276       0.000
   ...
    41         5.544       0.000
(only showing first 3 out of 144 k-points)

Gap: 0.860 eV
Transition (v -> c):
  (s=0, k=137, n=26, [0.50, -0.00, 0.00]) -> (s=0, k=54, n=27, [-0.08, 0.08, 0.00])
# Writing to gsq-22.gpw (mode='')

---

timing:  # [seconds]
  Total: 483.543  # ━━━━━━━━━━━━━━━━━━━━━━━━━━━━━━━━━━━━━━━━━━━━━━━━━━━━━━━━━
  Init:   14.518  # ━╸
  SCF:   467.742  # ━━━━━━━━━━━━━━━━━━━━━━━━━━━━━━━━━━━━━━━━━━━━━━━━━━━━━━━

Max RSS: 867.211  # MiB
