#  __  _  _
# | _ |_)|_||  |
# |__||  | ||/\| - 24.1.0

User:   s194099@n-62-29-15
Date:   Wed Apr 17 16:56:48 2024
Arch:   x86_64
Pid:    22110
CWD:    /zhome/84/5/147090/10302_NM/VBr2
Python: 3.8.5
gpaw:   /zhome/84/5/147090/venv1/gpaw/gpaw (10808453a8)
_gpaw:  /zhome/84/5/147090/venv1/gpaw/
        _gpaw.cpython-38-x86_64-linux-gnu.so (10808453a8)
ase:    /zhome/84/5/147090/venv1/ase/ase (version 3.23.0b1-c36115a2db)
numpy:  /zhome/84/5/147090/venv1/lib/python3.8/site-packages/numpy (version 1.24.4)
scipy:  /zhome/84/5/147090/venv1/lib/python3.8/site-packages/scipy (version 1.10.1)
libxc:  4.3.4
units:  Angstrom and eV
cores: 12
OpenMP: False
OMP_NUM_THREADS: 1

---
input parameters:
  kpts: 
    density: 6.0
    gamma: True
  magmoms: [[1, 0, 0], [0, 0, 0], [0, 0, 0]]
  mixer: 
    backend: 'pulay'
    beta: 0.05
    method: 'sum'
    nmaxold: 5
    weight: 100
  mode: 
    name: 'pw'
    ecut: 600
    qspiral: array([0.04761905, 0.04761905, 0.        ])
  parallel: 
    kpt: None
    domain: 1
    band: 1
    order: 'kdb'
    stridebands: False
    augment_grids: False
    sl_auto: False
    sl_default: None
    sl_diagonalize: None
    sl_inverse_cholesky: None
    sl_lcao: None
    sl_lrtddft: None
    use_elpa: False
    elpasolver: '2stage'
    buffer_size: None
    gpu: False
  symmetry: 
    point_group: False
    time_reversal: False
  xc: 
    name: 'LDA'

#                        
#                        
#                        
#                        
#                        
#              Br        
#                        
#        V               
#          Br            
#                        
#                        
#                        
#                        
#                        

atoms: [  # symbols, positions [Ang] and initial magnetic moments
  [  V, [   0.000000,    0.000000,    7.513573], [ 1.000,  0.000,  0.000]], # 0
  [ Br, [   1.984831,    1.145943,    9.027147], [ 0.000,  0.000,  0.000]], # 1
  [ Br, [  -0.000000,    2.291886,    6.000000], [ 0.000,  0.000,  0.000]]] # 2

cell: [  # Ang
#     x            y            z
  [   3.969662,    0.000000,    0.000000],
  [  -1.984831,    3.437828,    0.000000],
  [   0.000000,   -0.000000,   15.027147]]

periodic: [True      , True      , False     ]
lengths:  [  3.969662,   3.969662,  15.027147]  # Ang
angles:   [ 90.000000,  90.000000, 120.000000]

symmetry:
  number of symmetries: 1
  rotations: [
    [[ 1,  0,  0], [ 0,  1,  0], [ 0,  0,  1]]]

bz sampling:
  number of bz points: 121
  number of ibz points: 121
  monkhorst-pack size: [11, 11, 1]
  monkhorst-pack shift: [0, 0, 0]
  points and weights: [
    [[ -0.45454545,  -0.45454545,   0.00000000], 0.00826446],  # 0
    [[ -0.45454545,  -0.36363636,   0.00000000], 0.00826446],  # 1
    [[ -0.45454545,  -0.27272727,   0.00000000], 0.00826446],  # 2
    [[ -0.45454545,  -0.18181818,   0.00000000], 0.00826446],  # 3
    [[ -0.45454545,  -0.09090909,   0.00000000], 0.00826446],  # 4
    [[ -0.45454545,   0.00000000,   0.00000000], 0.00826446],  # 5
    [[ -0.45454545,   0.09090909,   0.00000000], 0.00826446],  # 6
    [[ -0.45454545,   0.18181818,   0.00000000], 0.00826446],  # 7
    [[ -0.45454545,   0.27272727,   0.00000000], 0.00826446],  # 8
    [[ -0.45454545,   0.36363636,   0.00000000], 0.00826446],  # 9
    # ...
    [[  0.45454545,   0.45454545,   0.00000000], 0.00826446]]  # 120

plane wave coefficients: 6874
cutoff: 600.0 eV

spin-components: 4  # (non-collinear spins)
bands: 42
valence electrons: 27.0
spin-degeneracy: 1
dtype: complex128

memory:
    wave functions: 1_113_974_400  # bytes  (92_831_200 per core)

parallelization:
    kpt:    12
    domain: 1
    band:   1

density:
  components: 4
  grid points: [24 24 90]
  charge: 0.0  # |e|

potential:
  grid points: [24 24 90]

species:
  V:
    name: Vanadium
    id: 7939ce69e6bb5930668dfcf9bb1979c3
    Z: 23.0
    valence: 13
    core: 10
    charge: 0.0
    file: /zhome/86/d/1666/PAW/gpaw-setups-0.9.20000/V.LDA.gz
    compensation charges: {type: gauss,
                           rc: 0.37,
                           lmax: 2}
    cutoffs: {filter: 2.14,
              core: 0.96}
    valence states:
      #              energy  rcut
      - 3s(2.00)   -69.819   1.254
      - 4s(2.00)    -4.846   1.254
      - 3p(6.00)   -43.961   1.281
      - 4p(0.00)    -1.526   1.281
      - 3d(3.00)    -5.381   1.169
      -  d          21.830   1.169
  
    # Using partial waves for V as LCAO basis

  Br:
    name: Bromine
    id: 10a25bbcb3273ec7d8d7f6fc01d2618d
    Z: 35.0
    valence: 7
    core: 28
    charge: 0.0
    file: /zhome/86/d/1666/PAW/gpaw-setups-0.9.20000/Br.LDA.gz
    compensation charges: {type: gauss,
                           rc: 0.35,
                           lmax: 2}
    cutoffs: {filter: 1.98,
              core: 2.38}
    valence states:
      #              energy  rcut
      - 4s(2.00)   -20.306   1.111
      - 4p(5.00)    -8.003   1.111
      -  s           6.906   1.111
      -  p          19.208   1.111
      -  d           0.000   1.111
  
    # Using partial waves for Br as LCAO basis

Reference energy: -167392.690611  # eV

eigensolver:
  name: 'Davidson'
  niter: 2
  converge_bands: 'occupied'
Density mixing:
  Method: sum
  Backend: pulay
  Linear mixing parameter: 0.05
  old densities: 5
  Damping of long wavelength oscillations: 100
occupation numbers:
  Fermi-Dirac:
    width: 0.1000  # eV
  

poisson solver:
  ecut: 4800.0  # eV

xc functional:
  name: None

convergence criteria:
- Maximum [total energy] change in last 3 cyles: 0.0005 eV / valence electron
- Maximum integral of absolute [dens]ity change: 0.0001 electrons / valence electron
- Maximum integral of absolute [eigenst]ate change: 4e-08 eV^2 / valence electron
maximum number of iterations: 333

#      iter     time        total  log10-change:
#                          energy   eigst   dens
# iter:   1 16:57:16   -14.568406                  +1.0,+0.0,+0.0
# iter:   2 16:57:33   -14.823197   -0.71  -1.44   +1.6,+0.0,-0.0
# iter:   3 16:57:51   -14.901743   -1.33  -1.47   +2.0,-0.0,+0.0
# iter:   4 16:58:08   -15.077622   -1.67  -1.55   +2.3,-0.0,-0.0
# iter:   5 16:58:25   -15.301820   -2.18  -1.69   +2.9,-0.0,+0.0
# iter:   6 16:58:42   -15.299331   -2.25  -2.09   +3.0,-0.0,+0.0
# iter:   7 16:58:59   -15.293424c  -2.92  -2.31   +2.9,-0.0,+0.0
# iter:   8 16:59:16   -15.293128c  -3.59  -2.68   +2.9,-0.0,-0.0
# iter:   9 16:59:33   -15.295649c  -3.23  -2.80   +3.0,-0.0,+0.0
# iter:  10 16:59:51   -15.294004c  -3.85  -2.59   +3.0,-0.0,+0.0
# iter:  11 17:00:08   -15.294005c  -4.52  -3.52   +3.0,-0.0,+0.0
# iter:  12 17:00:25   -15.294017c  -4.94  -3.60   +3.0,-0.0,+0.0
# iter:  13 17:00:42   -15.293994c  -4.90  -3.70   +3.0,-0.0,+0.0
# iter:  14 17:01:00   -15.293992c  -5.38  -4.13c  +3.0,-0.0,+0.0
# iter:  15 17:01:17   -15.293992c  -5.72  -4.26c  +3.0,-0.0,+0.0
# iter:  16 17:01:34   -15.294000c  -5.78  -4.29c  +3.0,-0.0,+0.0
# iter:  17 17:01:51   -15.293996c  -6.27  -4.43c  +3.0,-0.0,+0.0
# iter:  18 17:02:08   -15.293993c  -6.44  -4.56c  +3.0,-0.0,+0.0
# iter:  19 17:02:26   -15.293994c  -6.82  -4.72c  +3.0,-0.0,+0.0
# iter:  20 17:02:43   -15.293993c  -7.06  -4.73c  +3.0,-0.0,+0.0
# iter:  21 17:03:00   -15.293994c  -7.28  -4.78c  +3.0,-0.0,-0.0
# iter:  22 17:03:17   -15.293994c  -7.57c -4.98c  +3.0,-0.0,+0.0
scf_steps: 22
energies:  # eV
  coulomb:          -0.170563
  zero:              0.053533
  xc:              -14.789788
  external:          0.000000
  kinetic:          -0.380321
  spinorbit:         0.000000
  entropy:          -0.013711
  total:           -15.300850
  extrapolated:    -15.293994

dipole moment: [-5.256142, -9.102660, -9.998689]  # |e|*Ang

total magnetic moment: [2.987601, -0.000681, 0.000000]

local magnetic moments: [
  [ 2.661657, -0.000000,  0.000000],  # V  0
  [-0.036612,  0.011270, -0.000000],  # Br 1
  [-0.036599,  0.011313, -0.000000]]  # Br 2


Fermi level: -1.119 eV

kpt = [-0.455, -0.455, 0.000], weight = 0.008:
  Band      eig [eV]   occ [0-1]
     0       -65.851       1.000
   ...
    19        -5.162       1.000
    20        -5.119       1.000
    21        -5.095       1.000
    22        -5.058       1.000
    23        -4.963       1.000
    24        -2.152       1.000
    25        -1.624       0.994
    26        -1.597       0.992
    27        -0.492       0.002
    28        -0.395       0.001
    29        -0.117       0.000
    30         0.726       0.000
    31         0.826       0.000
    32         1.124       0.000
    33         1.185       0.000
    34         2.357       0.000
   ...
    41         5.306       0.000

kpt = [-0.455, -0.364, 0.000], weight = 0.008:
  Band      eig [eV]   occ [0-1]
     0       -65.851       1.000
   ...
    19        -5.273       1.000
    20        -5.204       1.000
    21        -5.102       1.000
    22        -5.053       1.000
    23        -4.894       1.000
    24        -1.988       1.000
    25        -1.643       0.995
    26        -1.612       0.993
    27        -0.587       0.005
    28        -0.437       0.001
    29         0.159       0.000
    30         0.675       0.000
    31         0.743       0.000
    32         1.044       0.000
    33         1.123       0.000
    34         2.699       0.000
   ...
    41         5.504       0.000

kpt = [-0.455, -0.273, 0.000], weight = 0.008:
  Band      eig [eV]   occ [0-1]
     0       -65.851       1.000
   ...
    19        -5.327       1.000
    20        -5.288       1.000
    21        -5.123       1.000
    22        -5.025       1.000
    23        -4.851       1.000
    24        -1.881       1.000
    25        -1.684       0.996
    26        -1.610       0.993
    27        -0.639       0.008
    28        -0.461       0.001
    29         0.417       0.000
    30         0.528       0.000
    31         0.694       0.000
    32         1.011       0.000
    33         1.080       0.000
    34         3.011       0.000
   ...
    41         5.533       0.000
(only showing first 3 out of 121 k-points)

Gap: 0.803 eV
Transition (v -> c):
  (s=0, k=103, n=26, [0.36, -0.09, 0.00]) -> (s=0, k=80, n=27, [0.18, -0.18, 0.00])
# Writing to gsq-28.gpw (mode='')

---

timing:  # [seconds]
  Total: 390.318  # ━━━━━━━━━━━━━━━━━━━━━━━━━━━━━━━━━━━━━━━━━━━━━━━━━━━━━━━━━
  Init:   12.052  # ━━
  SCF:   376.950  # ━━━━━━━━━━━━━━━━━━━━━━━━━━━━━━━━━━━━━━━━━━━━━━━━━━━━━━━

Max RSS: 1083.938  # MiB
