#  __  _  _
# | _ |_)|_||  |
# |__||  | ||/\| - 24.1.0

User:   s194099@n-62-29-15
Date:   Wed Apr 17 14:29:29 2024
Arch:   x86_64
Pid:    22110
CWD:    /zhome/84/5/147090/10302_NM/VBr2
Python: 3.8.5
gpaw:   /zhome/84/5/147090/venv1/gpaw/gpaw (10808453a8)
_gpaw:  /zhome/84/5/147090/venv1/gpaw/
        _gpaw.cpython-38-x86_64-linux-gnu.so (10808453a8)
ase:    /zhome/84/5/147090/venv1/ase/ase (version 3.23.0b1-c36115a2db)
numpy:  /zhome/84/5/147090/venv1/lib/python3.8/site-packages/numpy (version 1.24.4)
scipy:  /zhome/84/5/147090/venv1/lib/python3.8/site-packages/scipy (version 1.10.1)
libxc:  4.3.4
units:  Angstrom and eV
cores: 12
OpenMP: False
OMP_NUM_THREADS: 1

---
input parameters:
  kpts: 
    density: 6.0
    gamma: True
  magmoms: [[1, 0, 0], [0, 0, 0], [0, 0, 0]]
  mixer: 
    backend: 'pulay'
    beta: 0.05
    method: 'sum'
    nmaxold: 5
    weight: 100
  mode: 
    name: 'pw'
    ecut: 600
    qspiral: array([0.35, 0.  , 0.  ])
  parallel: 
    kpt: None
    domain: 1
    band: 1
    order: 'kdb'
    stridebands: False
    augment_grids: False
    sl_auto: False
    sl_default: None
    sl_diagonalize: None
    sl_inverse_cholesky: None
    sl_lcao: None
    sl_lrtddft: None
    use_elpa: False
    elpasolver: '2stage'
    buffer_size: None
    gpu: False
  symmetry: 
    point_group: False
    time_reversal: False
  xc: 
    name: 'LDA'

#                        
#                        
#                        
#                        
#                        
#              Br        
#                        
#        V               
#          Br            
#                        
#                        
#                        
#                        
#                        

atoms: [  # symbols, positions [Ang] and initial magnetic moments
  [  V, [   0.000000,    0.000000,    7.513573], [ 1.000,  0.000,  0.000]], # 0
  [ Br, [   1.984831,    1.145943,    9.027147], [ 0.000,  0.000,  0.000]], # 1
  [ Br, [  -0.000000,    2.291886,    6.000000], [ 0.000,  0.000,  0.000]]] # 2

cell: [  # Ang
#     x            y            z
  [   3.969662,    0.000000,    0.000000],
  [  -1.984831,    3.437828,    0.000000],
  [   0.000000,   -0.000000,   15.027147]]

periodic: [True      , True      , False     ]
lengths:  [  3.969662,   3.969662,  15.027147]  # Ang
angles:   [ 90.000000,  90.000000, 120.000000]

symmetry:
  number of symmetries: 1
  rotations: [
    [[ 1,  0,  0], [ 0,  1,  0], [ 0,  0,  1]]]

bz sampling:
  number of bz points: 121
  number of ibz points: 121
  monkhorst-pack size: [11, 11, 1]
  monkhorst-pack shift: [0, 0, 0]
  points and weights: [
    [[ -0.45454545,  -0.45454545,   0.00000000], 0.00826446],  # 0
    [[ -0.45454545,  -0.36363636,   0.00000000], 0.00826446],  # 1
    [[ -0.45454545,  -0.27272727,   0.00000000], 0.00826446],  # 2
    [[ -0.45454545,  -0.18181818,   0.00000000], 0.00826446],  # 3
    [[ -0.45454545,  -0.09090909,   0.00000000], 0.00826446],  # 4
    [[ -0.45454545,   0.00000000,   0.00000000], 0.00826446],  # 5
    [[ -0.45454545,   0.09090909,   0.00000000], 0.00826446],  # 6
    [[ -0.45454545,   0.18181818,   0.00000000], 0.00826446],  # 7
    [[ -0.45454545,   0.27272727,   0.00000000], 0.00826446],  # 8
    [[ -0.45454545,   0.36363636,   0.00000000], 0.00826446],  # 9
    # ...
    [[  0.45454545,   0.45454545,   0.00000000], 0.00826446]]  # 120

plane wave coefficients: 6874
cutoff: 600.0 eV

spin-components: 4  # (non-collinear spins)
bands: 42
valence electrons: 27.0
spin-degeneracy: 1
dtype: complex128

memory:
    wave functions: 1_113_974_400  # bytes  (92_831_200 per core)

parallelization:
    kpt:    12
    domain: 1
    band:   1

density:
  components: 4
  grid points: [24 24 90]
  charge: 0.0  # |e|

potential:
  grid points: [24 24 90]

species:
  V:
    name: Vanadium
    id: 7939ce69e6bb5930668dfcf9bb1979c3
    Z: 23.0
    valence: 13
    core: 10
    charge: 0.0
    file: /zhome/86/d/1666/PAW/gpaw-setups-0.9.20000/V.LDA.gz
    compensation charges: {type: gauss,
                           rc: 0.37,
                           lmax: 2}
    cutoffs: {filter: 2.14,
              core: 0.96}
    valence states:
      #              energy  rcut
      - 3s(2.00)   -69.819   1.254
      - 4s(2.00)    -4.846   1.254
      - 3p(6.00)   -43.961   1.281
      - 4p(0.00)    -1.526   1.281
      - 3d(3.00)    -5.381   1.169
      -  d          21.830   1.169
  
    # Using partial waves for V as LCAO basis

  Br:
    name: Bromine
    id: 10a25bbcb3273ec7d8d7f6fc01d2618d
    Z: 35.0
    valence: 7
    core: 28
    charge: 0.0
    file: /zhome/86/d/1666/PAW/gpaw-setups-0.9.20000/Br.LDA.gz
    compensation charges: {type: gauss,
                           rc: 0.35,
                           lmax: 2}
    cutoffs: {filter: 1.98,
              core: 2.38}
    valence states:
      #              energy  rcut
      - 4s(2.00)   -20.306   1.111
      - 4p(5.00)    -8.003   1.111
      -  s           6.906   1.111
      -  p          19.208   1.111
      -  d           0.000   1.111
  
    # Using partial waves for Br as LCAO basis

Reference energy: -167392.690611  # eV

eigensolver:
  name: 'Davidson'
  niter: 2
  converge_bands: 'occupied'
Density mixing:
  Method: sum
  Backend: pulay
  Linear mixing parameter: 0.05
  old densities: 5
  Damping of long wavelength oscillations: 100
occupation numbers:
  Fermi-Dirac:
    width: 0.1000  # eV
  

poisson solver:
  ecut: 4800.0  # eV

xc functional:
  name: None

convergence criteria:
- Maximum [total energy] change in last 3 cyles: 0.0005 eV / valence electron
- Maximum integral of absolute [dens]ity change: 0.0001 electrons / valence electron
- Maximum integral of absolute [eigenst]ate change: 4e-08 eV^2 / valence electron
maximum number of iterations: 333

#      iter     time        total  log10-change:
#                          energy   eigst   dens
# iter:   1 14:29:57   -14.359811                  +1.0,+0.0,+0.0
# iter:   2 14:30:14   -14.831773   -0.22  -1.45   +1.5,-0.0,+0.0
# iter:   3 14:30:31   -14.926367   -1.01  -1.47   +1.9,-0.0,+0.0
# iter:   4 14:30:48   -15.095358   -1.52  -1.55   +2.1,-0.0,+0.0
# iter:   5 14:31:06   -15.310899   -2.06  -1.68   +2.7,-0.0,+0.0
# iter:   6 14:31:23   -15.305516   -2.14  -2.06   +2.8,-0.0,+0.0
# iter:   7 14:31:40   -15.303566c  -2.88  -2.32   +2.8,-0.0,+0.0
# iter:   8 14:31:57   -15.301914c  -3.34  -2.68   +2.8,-0.0,+0.0
# iter:   9 14:32:14   -15.303665c  -3.55  -2.77   +2.8,-0.0,-0.0
# iter:  10 14:32:31   -15.303166c  -3.85  -2.80   +2.8,-0.0,+0.0
# iter:  11 14:32:48   -15.303135c  -4.37  -3.46   +2.8,-0.0,+0.0
# iter:  12 14:33:05   -15.303127c  -4.84  -3.59   +2.8,-0.0,-0.0
# iter:  13 14:33:23   -15.303127c  -5.10  -3.83   +2.8,-0.0,-0.0
# iter:  14 14:33:40   -15.303121c  -5.32  -3.89   +2.8,-0.0,-0.0
# iter:  15 14:33:57   -15.303120c  -5.58  -3.91   +2.8,-0.0,-0.0
# iter:  16 14:34:14   -15.303151c  -5.73  -3.95   +2.8,-0.0,+0.0
# iter:  17 14:34:31   -15.303147c  -6.03  -4.29c  +2.8,-0.0,+0.0
# iter:  18 14:34:48   -15.303147c  -6.31  -4.76c  +2.8,-0.0,+0.0
# iter:  19 14:35:05   -15.303146c  -6.57  -4.80c  +2.8,-0.0,+0.0
# iter:  20 14:35:22   -15.303147c  -6.79  -4.80c  +2.8,-0.0,-0.0
# iter:  21 14:35:39   -15.303147c  -7.06  -4.94c  +2.8,-0.0,-0.0
# iter:  22 14:35:56   -15.303146c  -7.29  -5.03c  +2.8,-0.0,-0.0
# iter:  23 14:36:13   -15.303146c  -7.53c -5.11c  +2.8,-0.0,-0.0
scf_steps: 23
energies:  # eV
  coulomb:           0.187516
  zero:              0.054043
  xc:              -14.654241
  external:          0.000000
  kinetic:          -0.884436
  spinorbit:         0.000000
  entropy:          -0.012056
  total:           -15.309174
  extrapolated:    -15.303146

dipole moment: [-4.830530, -8.812207, -9.117498]  # |e|*Ang

total magnetic moment: [2.843404, -0.001175, -0.000000]

local magnetic moments: [
  [ 2.614837,  0.000000, -0.000000],  # V  0
  [ 0.000814,  0.022851,  0.000000],  # Br 1
  [-0.018966,  0.012773,  0.000000]]  # Br 2


Fermi level: -1.183 eV

kpt = [-0.455, -0.455, 0.000], weight = 0.008:
  Band      eig [eV]   occ [0-1]
     0       -65.905       1.000
   ...
    19        -5.316       1.000
    20        -5.185       1.000
    21        -5.100       1.000
    22        -4.955       1.000
    23        -4.845       1.000
    24        -2.024       1.000
    25        -1.710       0.995
    26        -1.655       0.991
    27        -0.622       0.004
    28        -0.496       0.001
    29         0.136       0.000
    30         0.549       0.000
    31         0.671       0.000
    32         0.970       0.000
    33         1.009       0.000
    34         2.611       0.000
   ...
    41         5.526       0.000

kpt = [-0.455, -0.364, 0.000], weight = 0.008:
  Band      eig [eV]   occ [0-1]
     0       -65.905       1.000
   ...
    19        -5.253       1.000
    20        -5.107       1.000
    21        -5.046       1.000
    22        -4.918       1.000
    23        -4.750       1.000
    24        -2.003       1.000
    25        -1.721       0.995
    26        -1.685       0.993
    27        -0.647       0.005
    28        -0.525       0.001
    29         0.257       0.000
    30         0.574       0.000
    31         0.652       0.000
    32         0.871       0.000
    33         0.964       0.000
    34         2.601       0.000
   ...
    41         5.700       0.000

kpt = [-0.455, -0.273, 0.000], weight = 0.008:
  Band      eig [eV]   occ [0-1]
     0       -65.905       1.000
   ...
    19        -5.311       1.000
    20        -5.219       1.000
    21        -4.981       1.000
    22        -4.901       1.000
    23        -4.643       1.000
    24        -1.896       0.999
    25        -1.773       0.997
    26        -1.707       0.995
    27        -0.721       0.010
    28        -0.538       0.002
    29         0.415       0.000
    30         0.477       0.000
    31         0.596       0.000
    32         0.770       0.000
    33         0.931       0.000
    34         2.840       0.000
   ...
    41         5.524       0.000
(only showing first 3 out of 121 k-points)

Gap: 0.803 eV
Transition (v -> c):
  (s=0, k=115, n=26, [0.45, 0.00, 0.00]) -> (s=0, k=62, n=27, [0.00, 0.18, 0.00])
# Writing to gsq-07.gpw (mode='')

---

timing:  # [seconds]
  Total: 404.659  # ━━━━━━━━━━━━━━━━━━━━━━━━━━━━━━━━━━━━━━━━━━━━━━━━━━━━━━━━━
  Init:   12.015  # ━╸
  SCF:   391.733  # ━━━━━━━━━━━━━━━━━━━━━━━━━━━━━━━━━━━━━━━━━━━━━━━━━━━━━━━

Max RSS: 610.891  # MiB
