#  __  _  _
# | _ |_)|_||  |
# |__||  | ||/\| - 24.1.0

User:   s194099@n-62-29-15
Date:   Wed Apr 17 14:36:13 2024
Arch:   x86_64
Pid:    22110
CWD:    /zhome/84/5/147090/10302_NM/VBr2
Python: 3.8.5
gpaw:   /zhome/84/5/147090/venv1/gpaw/gpaw (10808453a8)
_gpaw:  /zhome/84/5/147090/venv1/gpaw/
        _gpaw.cpython-38-x86_64-linux-gnu.so (10808453a8)
ase:    /zhome/84/5/147090/venv1/ase/ase (version 3.23.0b1-c36115a2db)
numpy:  /zhome/84/5/147090/venv1/lib/python3.8/site-packages/numpy (version 1.24.4)
scipy:  /zhome/84/5/147090/venv1/lib/python3.8/site-packages/scipy (version 1.10.1)
libxc:  4.3.4
units:  Angstrom and eV
cores: 12
OpenMP: False
OMP_NUM_THREADS: 1

---
input parameters:
  kpts: 
    density: 6.0
    gamma: True
  magmoms: [[1, 0, 0], [0, 0, 0], [0, 0, 0]]
  mixer: 
    backend: 'pulay'
    beta: 0.05
    method: 'sum'
    nmaxold: 5
    weight: 100
  mode: 
    name: 'pw'
    ecut: 600
    qspiral: array([0.4, 0. , 0. ])
  parallel: 
    kpt: None
    domain: 1
    band: 1
    order: 'kdb'
    stridebands: False
    augment_grids: False
    sl_auto: False
    sl_default: None
    sl_diagonalize: None
    sl_inverse_cholesky: None
    sl_lcao: None
    sl_lrtddft: None
    use_elpa: False
    elpasolver: '2stage'
    buffer_size: None
    gpu: False
  symmetry: 
    point_group: False
    time_reversal: False
  xc: 
    name: 'LDA'

#                        
#                        
#                        
#                        
#                        
#              Br        
#                        
#        V               
#          Br            
#                        
#                        
#                        
#                        
#                        

atoms: [  # symbols, positions [Ang] and initial magnetic moments
  [  V, [   0.000000,    0.000000,    7.513573], [ 1.000,  0.000,  0.000]], # 0
  [ Br, [   1.984831,    1.145943,    9.027147], [ 0.000,  0.000,  0.000]], # 1
  [ Br, [  -0.000000,    2.291886,    6.000000], [ 0.000,  0.000,  0.000]]] # 2

cell: [  # Ang
#     x            y            z
  [   3.969662,    0.000000,    0.000000],
  [  -1.984831,    3.437828,    0.000000],
  [   0.000000,   -0.000000,   15.027147]]

periodic: [True      , True      , False     ]
lengths:  [  3.969662,   3.969662,  15.027147]  # Ang
angles:   [ 90.000000,  90.000000, 120.000000]

symmetry:
  number of symmetries: 1
  rotations: [
    [[ 1,  0,  0], [ 0,  1,  0], [ 0,  0,  1]]]

bz sampling:
  number of bz points: 121
  number of ibz points: 121
  monkhorst-pack size: [11, 11, 1]
  monkhorst-pack shift: [0, 0, 0]
  points and weights: [
    [[ -0.45454545,  -0.45454545,   0.00000000], 0.00826446],  # 0
    [[ -0.45454545,  -0.36363636,   0.00000000], 0.00826446],  # 1
    [[ -0.45454545,  -0.27272727,   0.00000000], 0.00826446],  # 2
    [[ -0.45454545,  -0.18181818,   0.00000000], 0.00826446],  # 3
    [[ -0.45454545,  -0.09090909,   0.00000000], 0.00826446],  # 4
    [[ -0.45454545,   0.00000000,   0.00000000], 0.00826446],  # 5
    [[ -0.45454545,   0.09090909,   0.00000000], 0.00826446],  # 6
    [[ -0.45454545,   0.18181818,   0.00000000], 0.00826446],  # 7
    [[ -0.45454545,   0.27272727,   0.00000000], 0.00826446],  # 8
    [[ -0.45454545,   0.36363636,   0.00000000], 0.00826446],  # 9
    # ...
    [[  0.45454545,   0.45454545,   0.00000000], 0.00826446]]  # 120

plane wave coefficients: 6874
cutoff: 600.0 eV

spin-components: 4  # (non-collinear spins)
bands: 42
valence electrons: 27.0
spin-degeneracy: 1
dtype: complex128

memory:
    wave functions: 1_113_974_400  # bytes  (92_831_200 per core)

parallelization:
    kpt:    12
    domain: 1
    band:   1

density:
  components: 4
  grid points: [24 24 90]
  charge: 0.0  # |e|

potential:
  grid points: [24 24 90]

species:
  V:
    name: Vanadium
    id: 7939ce69e6bb5930668dfcf9bb1979c3
    Z: 23.0
    valence: 13
    core: 10
    charge: 0.0
    file: /zhome/86/d/1666/PAW/gpaw-setups-0.9.20000/V.LDA.gz
    compensation charges: {type: gauss,
                           rc: 0.37,
                           lmax: 2}
    cutoffs: {filter: 2.14,
              core: 0.96}
    valence states:
      #              energy  rcut
      - 3s(2.00)   -69.819   1.254
      - 4s(2.00)    -4.846   1.254
      - 3p(6.00)   -43.961   1.281
      - 4p(0.00)    -1.526   1.281
      - 3d(3.00)    -5.381   1.169
      -  d          21.830   1.169
  
    # Using partial waves for V as LCAO basis

  Br:
    name: Bromine
    id: 10a25bbcb3273ec7d8d7f6fc01d2618d
    Z: 35.0
    valence: 7
    core: 28
    charge: 0.0
    file: /zhome/86/d/1666/PAW/gpaw-setups-0.9.20000/Br.LDA.gz
    compensation charges: {type: gauss,
                           rc: 0.35,
                           lmax: 2}
    cutoffs: {filter: 1.98,
              core: 2.38}
    valence states:
      #              energy  rcut
      - 4s(2.00)   -20.306   1.111
      - 4p(5.00)    -8.003   1.111
      -  s           6.906   1.111
      -  p          19.208   1.111
      -  d           0.000   1.111
  
    # Using partial waves for Br as LCAO basis

Reference energy: -167392.690611  # eV

eigensolver:
  name: 'Davidson'
  niter: 2
  converge_bands: 'occupied'
Density mixing:
  Method: sum
  Backend: pulay
  Linear mixing parameter: 0.05
  old densities: 5
  Damping of long wavelength oscillations: 100
occupation numbers:
  Fermi-Dirac:
    width: 0.1000  # eV
  

poisson solver:
  ecut: 4800.0  # eV

xc functional:
  name: None

convergence criteria:
- Maximum [total energy] change in last 3 cyles: 0.0005 eV / valence electron
- Maximum integral of absolute [dens]ity change: 0.0001 electrons / valence electron
- Maximum integral of absolute [eigenst]ate change: 4e-08 eV^2 / valence electron
maximum number of iterations: 333

#      iter     time        total  log10-change:
#                          energy   eigst   dens
# iter:   1 14:36:41   -14.278864                  +1.0,+0.0,+0.0
# iter:   2 14:36:58   -14.823530   -0.12  -1.45   +1.5,-0.0,+0.0
# iter:   3 14:37:15   -14.925865   -0.92  -1.47   +1.8,-0.0,+0.0
# iter:   4 14:37:33   -15.097493   -1.46  -1.55   +2.1,-0.0,-0.0
# iter:   5 14:37:50   -15.310299   -2.02  -1.68   +2.6,-0.0,-0.0
# iter:   6 14:38:07   -15.304475   -2.13  -2.05   +2.7,-0.0,+0.0
# iter:   7 14:38:24   -15.304903c  -2.71  -2.31   +2.8,-0.0,+0.0
# iter:   8 14:38:41   -15.302378c  -3.21  -2.62   +2.7,-0.0,-0.0
# iter:   9 14:38:58   -15.303603c  -3.66  -2.75   +2.8,-0.0,-0.0
# iter:  10 14:39:15   -15.303586c  -3.88  -2.97   +2.8,-0.0,-0.0
# iter:  11 14:39:32   -15.303600c  -4.38  -3.28   +2.8,-0.0,-0.0
# iter:  12 14:39:49   -15.303595c  -4.74  -3.63   +2.8,-0.0,+0.0
# iter:  13 14:40:06   -15.303604c  -5.02  -3.75   +2.8,-0.0,+0.0
# iter:  14 14:40:23   -15.303626c  -5.23  -3.79   +2.8,-0.0,-0.0
# iter:  15 14:40:40   -15.303626c  -5.51  -3.87   +2.8,-0.0,+0.0
# iter:  16 14:40:57   -15.303614c  -5.60  -3.90   +2.8,-0.0,+0.0
# iter:  17 14:41:14   -15.303613c  -5.96  -4.16c  +2.8,-0.0,-0.0
# iter:  18 14:41:31   -15.303616c  -6.22  -4.28c  +2.8,-0.0,-0.0
# iter:  19 14:41:48   -15.303617c  -6.48  -4.59c  +2.8,-0.0,-0.0
# iter:  20 14:42:05   -15.303616c  -6.74  -4.62c  +2.8,-0.0,+0.0
# iter:  21 14:42:22   -15.303619c  -6.81  -4.68c  +2.8,-0.0,+0.0
# iter:  22 14:42:39   -15.303618c  -7.19  -4.90c  +2.8,-0.0,+0.0
# iter:  23 14:42:56   -15.303618c  -7.45c -5.08c  +2.8,-0.0,+0.0
scf_steps: 23
energies:  # eV
  coulomb:           0.224933
  zero:              0.053547
  xc:              -14.637490
  external:          0.000000
  kinetic:          -0.938519
  spinorbit:         0.000000
  entropy:          -0.012179
  total:           -15.309707
  extrapolated:    -15.303618

dipole moment: [-4.752992, -8.743031, -8.908509]  # |e|*Ang

total magnetic moment: [2.810590, -0.000874, 0.000000]

local magnetic moments: [
  [ 2.608331,  0.000000,  0.000000],  # V  0
  [ 0.006946,  0.016779, -0.000000],  # Br 1
  [-0.015482,  0.009491, -0.000000]]  # Br 2


Fermi level: -1.198 eV

kpt = [-0.455, -0.455, 0.000], weight = 0.008:
  Band      eig [eV]   occ [0-1]
     0       -65.914       1.000
   ...
    19        -5.340       1.000
    20        -5.198       1.000
    21        -5.126       1.000
    22        -4.953       1.000
    23        -4.822       1.000
    24        -1.990       1.000
    25        -1.735       0.995
    26        -1.663       0.991
    27        -0.649       0.004
    28        -0.507       0.001
    29         0.202       0.000
    30         0.491       0.000
    31         0.642       0.000
    32         0.946       0.000
    33         0.985       0.000
    34         2.706       0.000
   ...
    41         5.513       0.000

kpt = [-0.455, -0.364, 0.000], weight = 0.008:
  Band      eig [eV]   occ [0-1]
     0       -65.914       1.000
   ...
    19        -5.255       1.000
    20        -5.124       1.000
    21        -5.036       1.000
    22        -4.899       1.000
    23        -4.719       1.000
    24        -1.992       1.000
    25        -1.750       0.996
    26        -1.690       0.993
    27        -0.680       0.006
    28        -0.520       0.001
    29         0.289       0.000
    30         0.516       0.000
    31         0.645       0.000
    32         0.832       0.000
    33         0.956       0.000
    34         2.635       0.000
   ...
    41         5.747       0.000

kpt = [-0.455, -0.273, 0.000], weight = 0.008:
  Band      eig [eV]   occ [0-1]
     0       -65.914       1.000
   ...
    19        -5.274       1.000
    20        -5.254       1.000
    21        -4.924       1.000
    22        -4.847       1.000
    23        -4.611       1.000
    24        -1.909       0.999
    25        -1.776       0.997
    26        -1.733       0.995
    27        -0.755       0.012
    28        -0.529       0.001
    29         0.406       0.000
    30         0.485       0.000
    31         0.554       0.000
    32         0.720       0.000
    33         0.924       0.000
    34         2.785       0.000
   ...
    41         5.457       0.000
(only showing first 3 out of 121 k-points)

Gap: 0.792 eV
Transition (v -> c):
  (s=0, k=115, n=26, [0.45, 0.00, 0.00]) -> (s=0, k=58, n=27, [0.00, -0.18, 0.00])
# Writing to gsq-08.gpw (mode='')

---

timing:  # [seconds]
  Total: 403.523  # ━━━━━━━━━━━━━━━━━━━━━━━━━━━━━━━━━━━━━━━━━━━━━━━━━━━━━━━━━
  Init:   11.998  # ━╸
  SCF:   391.181  # ━━━━━━━━━━━━━━━━━━━━━━━━━━━━━━━━━━━━━━━━━━━━━━━━━━━━━━━╸

Max RSS: 610.891  # MiB
