#  __  _  _
# | _ |_)|_||  |
# |__||  | ||/\| - 24.1.0

User:   s194113@n-62-28-31
Date:   Thu Apr 18 12:44:09 2024
Arch:   x86_64
Pid:    12758
CWD:    /zhome/87/8/147075/10302/10302_NM/VBr2
Python: 3.8.5
gpaw:   /zhome/87/8/147075/venv-name/gpaw/gpaw (10808453a8)
_gpaw:  /zhome/87/8/147075/venv-name/gpaw/
        _gpaw.cpython-38-x86_64-linux-gnu.so (10808453a8)
ase:    /zhome/87/8/147075/venv-name/ase/ase (version 3.23.0b1-c36115a2db)
numpy:  /zhome/87/8/147075/venv-name/lib/python3.8/site-packages/numpy (version 1.24.4)
scipy:  /zhome/87/8/147075/venv-name/lib/python3.8/site-packages/scipy (version 1.10.1)
libxc:  4.3.4
units:  Angstrom and eV
cores: 12
OpenMP: False
OMP_NUM_THREADS: 1

---
input parameters:
  kpts: 
    density: 6.0
    gamma: True
  magmoms: [[1, 0, 0], [0, 0, 0], [0, 0, 0]]
  mixer: 
    backend: 'pulay'
    beta: 0.05
    method: 'sum'
    nmaxold: 5
    weight: 100
  mode: 
    name: 'pw'
    ecut: 600
    qspiral: array([0.1, 0. , 0. ])
  parallel: 
    kpt: None
    domain: 1
    band: 1
    order: 'kdb'
    stridebands: False
    augment_grids: False
    sl_auto: False
    sl_default: None
    sl_diagonalize: None
    sl_inverse_cholesky: None
    sl_lcao: None
    sl_lrtddft: None
    use_elpa: False
    elpasolver: '2stage'
    buffer_size: None
    gpu: False
  symmetry: 
    point_group: False
    time_reversal: False
  xc: 
    name: 'LDA'

#                        
#                        
#                        
#                        
#                        
#              Br        
#                        
#        V               
#          Br            
#                        
#                        
#                        
#                        
#                        

atoms: [  # symbols, positions [Ang] and initial magnetic moments
  [  V, [   0.000000,    0.000000,    7.513573], [ 1.000,  0.000,  0.000]], # 0
  [ Br, [   1.920000,    1.108513,    9.027147], [ 0.000,  0.000,  0.000]], # 1
  [ Br, [  -0.000000,    2.217025,    6.000000], [ 0.000,  0.000,  0.000]]] # 2

cell: [  # Ang
#     x            y            z
  [   3.840000,    0.000000,    0.000000],
  [  -1.920000,    3.325538,    0.000000],
  [   0.000000,   -0.000000,   15.027147]]

periodic: [True      , True      , False     ]
lengths:  [  3.840000,   3.840000,  15.027147]  # Ang
angles:   [ 90.000000,  90.000000, 120.000000]

symmetry:
  number of symmetries: 1
  rotations: [
    [[ 1,  0,  0], [ 0,  1,  0], [ 0,  0,  1]]]

bz sampling:
  number of bz points: 144
  number of ibz points: 144
  monkhorst-pack size: [12, 12, 1]
  monkhorst-pack shift: [0.041666666666666664, 0.041666666666666664, 0.0]
  points and weights: [
    [[ -0.41666667,  -0.41666667,   0.00000000], 0.00694444],  # 0
    [[ -0.41666667,  -0.33333333,   0.00000000], 0.00694444],  # 1
    [[ -0.41666667,  -0.25000000,   0.00000000], 0.00694444],  # 2
    [[ -0.41666667,  -0.16666667,   0.00000000], 0.00694444],  # 3
    [[ -0.41666667,  -0.08333333,   0.00000000], 0.00694444],  # 4
    [[ -0.41666667,  -0.00000000,   0.00000000], 0.00694444],  # 5
    [[ -0.41666667,   0.08333333,   0.00000000], 0.00694444],  # 6
    [[ -0.41666667,   0.16666667,   0.00000000], 0.00694444],  # 7
    [[ -0.41666667,   0.25000000,   0.00000000], 0.00694444],  # 8
    [[ -0.41666667,   0.33333333,   0.00000000], 0.00694444],  # 9
    # ...
    [[  0.50000000,   0.50000000,   0.00000000], 0.00694444]]  # 143

plane wave coefficients: 6439
cutoff: 600.0 eV

spin-components: 4  # (non-collinear spins)
bands: 42
valence electrons: 27.0
spin-degeneracy: 1
dtype: complex128

memory:
    wave functions: 1_238_243_328  # bytes  (103_186_944 per core)

parallelization:
    kpt:    12
    domain: 1
    band:   1

density:
  components: 4
  grid points: [24 24 90]
  charge: 0.0  # |e|

potential:
  grid points: [24 24 90]

species:
  V:
    name: Vanadium
    id: 7939ce69e6bb5930668dfcf9bb1979c3
    Z: 23.0
    valence: 13
    core: 10
    charge: 0.0
    file: /zhome/86/d/1666/PAW/gpaw-setups-0.9.20000/V.LDA.gz
    compensation charges: {type: gauss,
                           rc: 0.37,
                           lmax: 2}
    cutoffs: {filter: 2.14,
              core: 0.96}
    valence states:
      #              energy  rcut
      - 3s(2.00)   -69.819   1.254
      - 4s(2.00)    -4.846   1.254
      - 3p(6.00)   -43.961   1.281
      - 4p(0.00)    -1.526   1.281
      - 3d(3.00)    -5.381   1.169
      -  d          21.830   1.169
  
    # Using partial waves for V as LCAO basis

  Br:
    name: Bromine
    id: 10a25bbcb3273ec7d8d7f6fc01d2618d
    Z: 35.0
    valence: 7
    core: 28
    charge: 0.0
    file: /zhome/86/d/1666/PAW/gpaw-setups-0.9.20000/Br.LDA.gz
    compensation charges: {type: gauss,
                           rc: 0.35,
                           lmax: 2}
    cutoffs: {filter: 1.98,
              core: 2.38}
    valence states:
      #              energy  rcut
      - 4s(2.00)   -20.306   1.111
      - 4p(5.00)    -8.003   1.111
      -  s           6.906   1.111
      -  p          19.208   1.111
      -  d           0.000   1.111
  
    # Using partial waves for Br as LCAO basis

Reference energy: -167392.690611  # eV

eigensolver:
  name: 'Davidson'
  niter: 2
  converge_bands: 'occupied'
Density mixing:
  Method: sum
  Backend: pulay
  Linear mixing parameter: 0.05
  old densities: 5
  Damping of long wavelength oscillations: 100
occupation numbers:
  Fermi-Dirac:
    width: 0.1000  # eV
  

poisson solver:
  ecut: 4800.0  # eV

xc functional:
  name: None

convergence criteria:
- Maximum [total energy] change in last 3 cyles: 0.0005 eV / valence electron
- Maximum integral of absolute [dens]ity change: 0.0001 electrons / valence electron
- Maximum integral of absolute [eigenst]ate change: 4e-08 eV^2 / valence electron
maximum number of iterations: 333

#      iter     time        total  log10-change:
#                          energy   eigst   dens
# iter:   1 12:44:42   -14.955857                  +1.0,+0.0,+0.0
# iter:   2 12:45:03   -15.120119   -0.62  -1.42   +1.5,-0.0,+0.0
# iter:   3 12:45:23   -15.153776   -1.21  -1.46   +1.9,-0.0,+0.0
# iter:   4 12:45:44   -15.290200   -1.58  -1.56   +2.2,-0.0,-0.0
# iter:   5 12:46:04   -15.535807   -2.07  -1.68   +2.8,-0.0,-0.0
# iter:   6 12:46:25   -15.547370   -2.23  -2.08   +2.9,-0.0,-0.0
# iter:   7 12:46:45   -15.540498c  -2.68  -2.29   +2.9,-0.0,-0.0
# iter:   8 12:47:05   -15.539246c  -3.56  -2.63   +2.9,-0.0,-0.0
# iter:   9 12:47:25   -15.543764c  -3.11  -2.75   +3.0,-0.0,-0.0
# iter:  10 12:47:45   -15.541884c  -3.76  -2.61   +3.0,-0.0,+0.0
# iter:  11 12:48:06   -15.541874c  -4.41  -3.52   +3.0,-0.0,+0.0
# iter:  12 12:48:26   -15.541901c  -4.88  -3.61   +3.0,-0.0,+0.0
# iter:  13 12:48:46   -15.541911c  -5.02  -3.71   +3.0,-0.0,+0.0
# iter:  14 12:49:06   -15.541903c  -5.40  -3.92   +3.0,-0.0,+0.0
# iter:  15 12:49:26   -15.541896c  -5.67  -4.01c  +3.0,-0.0,+0.0
# iter:  16 12:49:47   -15.541900c  -5.94  -4.11c  +3.0,-0.0,+0.0
# iter:  17 12:50:07   -15.541899c  -6.25  -4.14c  +3.0,-0.0,-0.0
# iter:  18 12:50:27   -15.541904c  -6.49  -4.19c  +3.0,-0.0,-0.0
# iter:  19 12:50:47   -15.541908c  -6.58  -4.26c  +3.0,-0.0,+0.0
# iter:  20 12:51:07   -15.541909c  -6.96  -4.45c  +3.0,-0.0,+0.0
# iter:  21 12:51:28   -15.541916c  -6.72  -4.52c  +3.0,-0.0,+0.0
# iter:  22 12:51:48   -15.541916c  -7.38  -4.98c  +3.0,-0.0,+0.0
# iter:  23 12:52:08   -15.541915c  -7.58c -5.00c  +3.0,-0.0,-0.0
scf_steps: 23
energies:  # eV
  coulomb:          -3.814006
  zero:              0.045270
  xc:              -15.997119
  external:          0.000000
  kinetic:           4.229688
  spinorbit:         0.000000
  entropy:          -0.011497
  total:           -15.547664
  extrapolated:    -15.541915

dipole moment: [-5.040708, -8.843524, -10.068215]  # |e|*Ang

total magnetic moment: [2.974948, -0.000751, -0.000000]

local magnetic moments: [
  [ 2.634375,  0.000000,  0.000000],  # V  0
  [-0.026615,  0.011814, -0.000000],  # Br 1
  [-0.028476,  0.006086, -0.000000]]  # Br 2


Fermi level: -0.656 eV

kpt = [-0.417, -0.417, 0.000], weight = 0.007:
  Band      eig [eV]   occ [0-1]
     0       -65.413       1.000
   ...
    19        -5.104       1.000
    20        -5.042       1.000
    21        -5.011       1.000
    22        -4.910       1.000
    23        -4.809       1.000
    24        -1.694       1.000
    25        -1.176       0.995
    26        -1.168       0.994
    27        -0.073       0.003
    28         0.133       0.000
    29         0.370       0.000
    30         1.123       0.000
    31         1.200       0.000
    32         1.485       0.000
    33         1.675       0.000
    34         3.137       0.000
   ...
    41         5.957       0.000

kpt = [-0.417, -0.333, 0.000], weight = 0.007:
  Band      eig [eV]   occ [0-1]
     0       -65.413       1.000
   ...
    19        -5.202       1.000
    20        -5.158       1.000
    21        -4.981       1.000
    22        -4.945       1.000
    23        -4.765       1.000
    24        -1.516       1.000
    25        -1.234       0.997
    26        -1.172       0.994
    27        -0.117       0.005
    28         0.070       0.001
    29         0.684       0.000
    30         1.017       0.000
    31         1.137       0.000
    32         1.416       0.000
    33         1.580       0.000
    34         3.564       0.000
   ...
    41         6.110       0.000

kpt = [-0.417, -0.250, 0.000], weight = 0.007:
  Band      eig [eV]   occ [0-1]
     0       -65.413       1.000
   ...
    19        -5.230       1.000
    20        -5.172       1.000
    21        -5.011       1.000
    22        -4.920       1.000
    23        -4.751       1.000
    24        -1.503       1.000
    25        -1.238       0.997
    26        -1.172       0.994
    27        -0.135       0.005
    28         0.076       0.001
    29         0.685       0.000
    30         1.006       0.000
    31         1.134       0.000
    32         1.409       0.000
    33         1.584       0.000
    34         3.643       0.000
   ...
    41         6.105       0.000
(only showing first 3 out of 144 k-points)

Gap: 0.827 eV
Transition (v -> c):
  (s=0, k=137, n=26, [0.50, -0.00, 0.00]) -> (s=0, k=87, n=27, [0.17, -0.17, 0.00])
# Writing to gsq-02.gpw (mode='')

---

timing:  # [seconds]
  Total: 479.943  # ━━━━━━━━━━━━━━━━━━━━━━━━━━━━━━━━━━━━━━━━━━━━━━━━━━━━━━━━━
  Init:   14.500  # ━╸
  SCF:   464.882  # ━━━━━━━━━━━━━━━━━━━━━━━━━━━━━━━━━━━━━━━━━━━━━━━━━━━━━━━

Max RSS: 437.551  # MiB
