#  __  _  _
# | _ |_)|_||  |
# |__||  | ||/\| - 24.1.0

User:   s194113@n-62-28-31
Date:   Thu Apr 18 14:23:04 2024
Arch:   x86_64
Pid:    12758
CWD:    /zhome/87/8/147075/10302/10302_NM/VBr2
Python: 3.8.5
gpaw:   /zhome/87/8/147075/venv-name/gpaw/gpaw (10808453a8)
_gpaw:  /zhome/87/8/147075/venv-name/gpaw/
        _gpaw.cpython-38-x86_64-linux-gnu.so (10808453a8)
ase:    /zhome/87/8/147075/venv-name/ase/ase (version 3.23.0b1-c36115a2db)
numpy:  /zhome/87/8/147075/venv-name/lib/python3.8/site-packages/numpy (version 1.24.4)
scipy:  /zhome/87/8/147075/venv-name/lib/python3.8/site-packages/scipy (version 1.10.1)
libxc:  4.3.4
units:  Angstrom and eV
cores: 12
OpenMP: False
OMP_NUM_THREADS: 1

---
input parameters:
  kpts: 
    density: 6.0
    gamma: True
  magmoms: [[1, 0, 0], [0, 0, 0], [0, 0, 0]]
  mixer: 
    backend: 'pulay'
    beta: 0.05
    method: 'sum'
    nmaxold: 5
    weight: 100
  mode: 
    name: 'pw'
    ecut: 600
    qspiral: array([0.38888889, 0.22222222, 0.        ])
  parallel: 
    kpt: None
    domain: 1
    band: 1
    order: 'kdb'
    stridebands: False
    augment_grids: False
    sl_auto: False
    sl_default: None
    sl_diagonalize: None
    sl_inverse_cholesky: None
    sl_lcao: None
    sl_lrtddft: None
    use_elpa: False
    elpasolver: '2stage'
    buffer_size: None
    gpu: False
  symmetry: 
    point_group: False
    time_reversal: False
  xc: 
    name: 'LDA'

#                        
#                        
#                        
#                        
#                        
#              Br        
#                        
#        V               
#          Br            
#                        
#                        
#                        
#                        
#                        

atoms: [  # symbols, positions [Ang] and initial magnetic moments
  [  V, [   0.000000,    0.000000,    7.513573], [ 1.000,  0.000,  0.000]], # 0
  [ Br, [   1.920000,    1.108513,    9.027147], [ 0.000,  0.000,  0.000]], # 1
  [ Br, [  -0.000000,    2.217025,    6.000000], [ 0.000,  0.000,  0.000]]] # 2

cell: [  # Ang
#     x            y            z
  [   3.840000,    0.000000,    0.000000],
  [  -1.920000,    3.325538,    0.000000],
  [   0.000000,   -0.000000,   15.027147]]

periodic: [True      , True      , False     ]
lengths:  [  3.840000,   3.840000,  15.027147]  # Ang
angles:   [ 90.000000,  90.000000, 120.000000]

symmetry:
  number of symmetries: 1
  rotations: [
    [[ 1,  0,  0], [ 0,  1,  0], [ 0,  0,  1]]]

bz sampling:
  number of bz points: 144
  number of ibz points: 144
  monkhorst-pack size: [12, 12, 1]
  monkhorst-pack shift: [0.041666666666666664, 0.041666666666666664, 0.0]
  points and weights: [
    [[ -0.41666667,  -0.41666667,   0.00000000], 0.00694444],  # 0
    [[ -0.41666667,  -0.33333333,   0.00000000], 0.00694444],  # 1
    [[ -0.41666667,  -0.25000000,   0.00000000], 0.00694444],  # 2
    [[ -0.41666667,  -0.16666667,   0.00000000], 0.00694444],  # 3
    [[ -0.41666667,  -0.08333333,   0.00000000], 0.00694444],  # 4
    [[ -0.41666667,  -0.00000000,   0.00000000], 0.00694444],  # 5
    [[ -0.41666667,   0.08333333,   0.00000000], 0.00694444],  # 6
    [[ -0.41666667,   0.16666667,   0.00000000], 0.00694444],  # 7
    [[ -0.41666667,   0.25000000,   0.00000000], 0.00694444],  # 8
    [[ -0.41666667,   0.33333333,   0.00000000], 0.00694444],  # 9
    # ...
    [[  0.50000000,   0.50000000,   0.00000000], 0.00694444]]  # 143

plane wave coefficients: 6439
cutoff: 600.0 eV

spin-components: 4  # (non-collinear spins)
bands: 42
valence electrons: 27.0
spin-degeneracy: 1
dtype: complex128

memory:
    wave functions: 1_238_243_328  # bytes  (103_186_944 per core)

parallelization:
    kpt:    12
    domain: 1
    band:   1

density:
  components: 4
  grid points: [24 24 90]
  charge: 0.0  # |e|

potential:
  grid points: [24 24 90]

species:
  V:
    name: Vanadium
    id: 7939ce69e6bb5930668dfcf9bb1979c3
    Z: 23.0
    valence: 13
    core: 10
    charge: 0.0
    file: /zhome/86/d/1666/PAW/gpaw-setups-0.9.20000/V.LDA.gz
    compensation charges: {type: gauss,
                           rc: 0.37,
                           lmax: 2}
    cutoffs: {filter: 2.14,
              core: 0.96}
    valence states:
      #              energy  rcut
      - 3s(2.00)   -69.819   1.254
      - 4s(2.00)    -4.846   1.254
      - 3p(6.00)   -43.961   1.281
      - 4p(0.00)    -1.526   1.281
      - 3d(3.00)    -5.381   1.169
      -  d          21.830   1.169
  
    # Using partial waves for V as LCAO basis

  Br:
    name: Bromine
    id: 10a25bbcb3273ec7d8d7f6fc01d2618d
    Z: 35.0
    valence: 7
    core: 28
    charge: 0.0
    file: /zhome/86/d/1666/PAW/gpaw-setups-0.9.20000/Br.LDA.gz
    compensation charges: {type: gauss,
                           rc: 0.35,
                           lmax: 2}
    cutoffs: {filter: 1.98,
              core: 2.38}
    valence states:
      #              energy  rcut
      - 4s(2.00)   -20.306   1.111
      - 4p(5.00)    -8.003   1.111
      -  s           6.906   1.111
      -  p          19.208   1.111
      -  d           0.000   1.111
  
    # Using partial waves for Br as LCAO basis

Reference energy: -167392.690611  # eV

eigensolver:
  name: 'Davidson'
  niter: 2
  converge_bands: 'occupied'
Density mixing:
  Method: sum
  Backend: pulay
  Linear mixing parameter: 0.05
  old densities: 5
  Damping of long wavelength oscillations: 100
occupation numbers:
  Fermi-Dirac:
    width: 0.1000  # eV
  

poisson solver:
  ecut: 4800.0  # eV

xc functional:
  name: None

convergence criteria:
- Maximum [total energy] change in last 3 cyles: 0.0005 eV / valence electron
- Maximum integral of absolute [dens]ity change: 0.0001 electrons / valence electron
- Maximum integral of absolute [eigenst]ate change: 4e-08 eV^2 / valence electron
maximum number of iterations: 333

#      iter     time        total  log10-change:
#                          energy   eigst   dens
# iter:   1 14:23:38   -14.332946                  +1.0,+0.0,+0.0
# iter:   2 14:23:59   -15.127959   +0.16  -1.42   +1.4,-0.0,-0.0
# iter:   3 14:24:20   -15.234319   -0.67  -1.46   +1.6,-0.0,-0.0
# iter:   4 14:24:40   -15.363326   -1.28  -1.55   +1.9,-0.0,-0.0
# iter:   5 14:25:01   -15.579526   -1.83  -1.67   +2.3,-0.0,-0.0
# iter:   6 14:25:22   -15.583163   -2.06  -2.00   +2.5,-0.0,-0.0
# iter:   7 14:25:43   -15.589068c  -2.36  -2.26   +2.5,-0.0,-0.0
# iter:   8 14:26:03   -15.583432c  -2.88  -2.50   +2.5,-0.0,-0.0
# iter:   9 14:26:24   -15.584957c  -3.65  -2.70   +2.6,-0.0,-0.0
# iter:  10 14:26:45   -15.585803c  -3.90  -2.97   +2.6,-0.0,-0.0
# iter:  11 14:27:05   -15.585861c  -4.29  -3.59   +2.6,-0.0,-0.0
# iter:  12 14:27:26   -15.585876c  -4.58  -3.66   +2.6,-0.0,-0.0
# iter:  13 14:27:47   -15.585921c  -4.84  -3.69   +2.6,-0.0,-0.0
# iter:  14 14:28:07   -15.585933c  -5.04  -3.81   +2.6,-0.0,-0.0
# iter:  15 14:28:28   -15.585927c  -5.35  -3.92   +2.6,-0.0,-0.0
# iter:  16 14:28:48   -15.585931c  -5.61  -4.04c  +2.6,-0.0,-0.0
# iter:  17 14:29:09   -15.585932c  -5.84  -4.08c  +2.6,-0.0,-0.0
# iter:  18 14:29:30   -15.585931c  -6.08  -4.26c  +2.6,-0.0,-0.0
# iter:  19 14:29:50   -15.585937c  -6.23  -4.33c  +2.6,-0.0,-0.0
# iter:  20 14:30:11   -15.585937c  -6.48  -4.44c  +2.6,-0.0,-0.0
# iter:  21 14:30:31   -15.585938c  -6.71  -4.58c  +2.6,-0.0,-0.0
# iter:  22 14:30:52   -15.585938c  -6.95  -4.64c  +2.6,-0.0,-0.0
# iter:  23 14:31:12   -15.585938c  -7.07  -4.69c  +2.6,-0.0,-0.0
# iter:  24 14:31:33   -15.585938c  -7.38  -4.99c  +2.6,-0.0,-0.0
# iter:  25 14:31:53   -15.585938c  -7.61c -5.04c  +2.6,-0.0,-0.0
scf_steps: 25
energies:  # eV
  coulomb:          -2.956590
  zero:              0.047643
  xc:              -15.704288
  external:          0.000000
  kinetic:           3.031604
  spinorbit:         0.000000
  entropy:          -0.008613
  total:           -15.590245
  extrapolated:    -15.585938

dipole moment: [-4.507567, -8.030935, -7.856367]  # |e|*Ang

total magnetic moment: [2.629737, -0.000150, -0.000000]

local magnetic moments: [
  [ 2.545888,  0.000000, -0.000000],  # V  0
  [ 0.005356,  0.000053,  0.000000],  # Br 1
  [-0.004069,  0.003483,  0.000000]]  # Br 2


Fermi level: -0.768 eV

kpt = [-0.417, -0.417, 0.000], weight = 0.007:
  Band      eig [eV]   occ [0-1]
     0       -65.517       1.000
   ...
    19        -5.178       1.000
    20        -5.098       1.000
    21        -5.068       1.000
    22        -4.868       1.000
    23        -4.792       1.000
    24        -1.565       1.000
    25        -1.405       0.998
    26        -1.291       0.995
    27        -0.168       0.002
    28        -0.054       0.001
    29         0.744       0.000
    30         0.791       0.000
    31         0.970       0.000
    32         1.338       0.000
    33         1.409       0.000
    34         3.255       0.000
   ...
    41         5.999       0.000

kpt = [-0.417, -0.333, 0.000], weight = 0.007:
  Band      eig [eV]   occ [0-1]
     0       -65.517       1.000
   ...
    19        -5.120       1.000
    20        -4.972       1.000
    21        -4.831       1.000
    22        -4.755       1.000
    23        -4.613       1.000
    24        -1.653       1.000
    25        -1.401       0.998
    26        -1.350       0.997
    27        -0.225       0.004
    28        -0.030       0.001
    29         0.680       0.000
    30         0.839       0.000
    31         0.896       0.000
    32         1.279       0.000
    33         1.393       0.000
    34         3.022       0.000
   ...
    41         5.459       0.000

kpt = [-0.417, -0.250, 0.000], weight = 0.007:
  Band      eig [eV]   occ [0-1]
     0       -65.517       1.000
   ...
    19        -5.032       1.000
    20        -4.772       1.000
    21        -4.678       1.000
    22        -4.642       1.000
    23        -4.443       1.000
    24        -1.668       1.000
    25        -1.483       0.999
    26        -1.331       0.996
    27        -0.217       0.004
    28        -0.098       0.001
    29         0.602       0.000
    30         0.764       0.000
    31         0.904       0.000
    32         1.216       0.000
    33         1.295       0.000
    34         3.056       0.000
   ...
    41         5.110       0.000
(only showing first 3 out of 144 k-points)

Gap: 0.834 eV
Transition (v -> c):
  (s=0, k=71, n=26, [-0.00, 0.50, 0.00]) -> (s=0, k=62, n=27, [-0.00, -0.25, 0.00])
# Writing to gsq-14.gpw (mode='')

---

timing:  # [seconds]
  Total: 530.494  # ━━━━━━━━━━━━━━━━━━━━━━━━━━━━━━━━━━━━━━━━━━━━━━━━━━━━━━━━━
  Init:   14.669  # ━╸
  SCF:   514.346  # ━━━━━━━━━━━━━━━━━━━━━━━━━━━━━━━━━━━━━━━━━━━━━━━━━━━━━━━╸

Max RSS: 611.734  # MiB
