#  __  _  _
# | _ |_)|_||  |
# |__||  | ||/\| - 24.1.0

User:   s194099@n-62-29-15
Date:   Wed Apr 17 16:23:46 2024
Arch:   x86_64
Pid:    22110
CWD:    /zhome/84/5/147090/10302_NM/VBr2
Python: 3.8.5
gpaw:   /zhome/84/5/147090/venv1/gpaw/gpaw (10808453a8)
_gpaw:  /zhome/84/5/147090/venv1/gpaw/
        _gpaw.cpython-38-x86_64-linux-gnu.so (10808453a8)
ase:    /zhome/84/5/147090/venv1/ase/ase (version 3.23.0b1-c36115a2db)
numpy:  /zhome/84/5/147090/venv1/lib/python3.8/site-packages/numpy (version 1.24.4)
scipy:  /zhome/84/5/147090/venv1/lib/python3.8/site-packages/scipy (version 1.10.1)
libxc:  4.3.4
units:  Angstrom and eV
cores: 12
OpenMP: False
OMP_NUM_THREADS: 1

---
input parameters:
  kpts: 
    density: 6.0
    gamma: True
  magmoms: [[1, 0, 0], [0, 0, 0], [0, 0, 0]]
  mixer: 
    backend: 'pulay'
    beta: 0.05
    method: 'sum'
    nmaxold: 5
    weight: 100
  mode: 
    name: 'pw'
    ecut: 600
    qspiral: array([0.16666667, 0.16666667, 0.        ])
  parallel: 
    kpt: None
    domain: 1
    band: 1
    order: 'kdb'
    stridebands: False
    augment_grids: False
    sl_auto: False
    sl_default: None
    sl_diagonalize: None
    sl_inverse_cholesky: None
    sl_lcao: None
    sl_lrtddft: None
    use_elpa: False
    elpasolver: '2stage'
    buffer_size: None
    gpu: False
  symmetry: 
    point_group: False
    time_reversal: False
  xc: 
    name: 'LDA'

#                        
#                        
#                        
#                        
#                        
#              Br        
#                        
#        V               
#          Br            
#                        
#                        
#                        
#                        
#                        

atoms: [  # symbols, positions [Ang] and initial magnetic moments
  [  V, [   0.000000,    0.000000,    7.513573], [ 1.000,  0.000,  0.000]], # 0
  [ Br, [   1.984831,    1.145943,    9.027147], [ 0.000,  0.000,  0.000]], # 1
  [ Br, [  -0.000000,    2.291886,    6.000000], [ 0.000,  0.000,  0.000]]] # 2

cell: [  # Ang
#     x            y            z
  [   3.969662,    0.000000,    0.000000],
  [  -1.984831,    3.437828,    0.000000],
  [   0.000000,   -0.000000,   15.027147]]

periodic: [True      , True      , False     ]
lengths:  [  3.969662,   3.969662,  15.027147]  # Ang
angles:   [ 90.000000,  90.000000, 120.000000]

symmetry:
  number of symmetries: 1
  rotations: [
    [[ 1,  0,  0], [ 0,  1,  0], [ 0,  0,  1]]]

bz sampling:
  number of bz points: 121
  number of ibz points: 121
  monkhorst-pack size: [11, 11, 1]
  monkhorst-pack shift: [0, 0, 0]
  points and weights: [
    [[ -0.45454545,  -0.45454545,   0.00000000], 0.00826446],  # 0
    [[ -0.45454545,  -0.36363636,   0.00000000], 0.00826446],  # 1
    [[ -0.45454545,  -0.27272727,   0.00000000], 0.00826446],  # 2
    [[ -0.45454545,  -0.18181818,   0.00000000], 0.00826446],  # 3
    [[ -0.45454545,  -0.09090909,   0.00000000], 0.00826446],  # 4
    [[ -0.45454545,   0.00000000,   0.00000000], 0.00826446],  # 5
    [[ -0.45454545,   0.09090909,   0.00000000], 0.00826446],  # 6
    [[ -0.45454545,   0.18181818,   0.00000000], 0.00826446],  # 7
    [[ -0.45454545,   0.27272727,   0.00000000], 0.00826446],  # 8
    [[ -0.45454545,   0.36363636,   0.00000000], 0.00826446],  # 9
    # ...
    [[  0.45454545,   0.45454545,   0.00000000], 0.00826446]]  # 120

plane wave coefficients: 6874
cutoff: 600.0 eV

spin-components: 4  # (non-collinear spins)
bands: 42
valence electrons: 27.0
spin-degeneracy: 1
dtype: complex128

memory:
    wave functions: 1_113_974_400  # bytes  (92_831_200 per core)

parallelization:
    kpt:    12
    domain: 1
    band:   1

density:
  components: 4
  grid points: [24 24 90]
  charge: 0.0  # |e|

potential:
  grid points: [24 24 90]

species:
  V:
    name: Vanadium
    id: 7939ce69e6bb5930668dfcf9bb1979c3
    Z: 23.0
    valence: 13
    core: 10
    charge: 0.0
    file: /zhome/86/d/1666/PAW/gpaw-setups-0.9.20000/V.LDA.gz
    compensation charges: {type: gauss,
                           rc: 0.37,
                           lmax: 2}
    cutoffs: {filter: 2.14,
              core: 0.96}
    valence states:
      #              energy  rcut
      - 3s(2.00)   -69.819   1.254
      - 4s(2.00)    -4.846   1.254
      - 3p(6.00)   -43.961   1.281
      - 4p(0.00)    -1.526   1.281
      - 3d(3.00)    -5.381   1.169
      -  d          21.830   1.169
  
    # Using partial waves for V as LCAO basis

  Br:
    name: Bromine
    id: 10a25bbcb3273ec7d8d7f6fc01d2618d
    Z: 35.0
    valence: 7
    core: 28
    charge: 0.0
    file: /zhome/86/d/1666/PAW/gpaw-setups-0.9.20000/Br.LDA.gz
    compensation charges: {type: gauss,
                           rc: 0.35,
                           lmax: 2}
    cutoffs: {filter: 1.98,
              core: 2.38}
    valence states:
      #              energy  rcut
      - 4s(2.00)   -20.306   1.111
      - 4p(5.00)    -8.003   1.111
      -  s           6.906   1.111
      -  p          19.208   1.111
      -  d           0.000   1.111
  
    # Using partial waves for Br as LCAO basis

Reference energy: -167392.690611  # eV

eigensolver:
  name: 'Davidson'
  niter: 2
  converge_bands: 'occupied'
Density mixing:
  Method: sum
  Backend: pulay
  Linear mixing parameter: 0.05
  old densities: 5
  Damping of long wavelength oscillations: 100
occupation numbers:
  Fermi-Dirac:
    width: 0.1000  # eV
  

poisson solver:
  ecut: 4800.0  # eV

xc functional:
  name: None

convergence criteria:
- Maximum [total energy] change in last 3 cyles: 0.0005 eV / valence electron
- Maximum integral of absolute [dens]ity change: 0.0001 electrons / valence electron
- Maximum integral of absolute [eigenst]ate change: 4e-08 eV^2 / valence electron
maximum number of iterations: 333

#      iter     time        total  log10-change:
#                          energy   eigst   dens
# iter:   1 16:24:15   -14.437006                  +1.0,+0.0,+0.0
# iter:   2 16:24:32   -14.836938   -0.33  -1.44   +1.6,-0.0,+0.0
# iter:   3 16:24:49   -14.927774   -1.10  -1.47   +1.9,-0.0,+0.0
# iter:   4 16:25:07   -15.097172   -1.56  -1.56   +2.2,-0.0,-0.0
# iter:   5 16:25:24   -15.308107   -2.11  -1.69   +2.7,-0.0,+0.0
# iter:   6 16:25:41   -15.307748   -2.13  -2.09   +2.8,-0.0,-0.0
# iter:   7 16:25:59   -15.301741c  -2.89  -2.32   +2.8,-0.0,-0.0
# iter:   8 16:26:16   -15.301311c  -3.57  -2.74   +2.8,-0.0,-0.0
# iter:   9 16:26:33   -15.303728c  -3.24  -2.80   +2.9,-0.0,-0.0
# iter:  10 16:26:51   -15.302387c  -3.85  -2.65   +2.9,-0.0,-0.0
# iter:  11 16:27:08   -15.302391c  -4.51  -3.58   +2.9,-0.0,-0.0
# iter:  12 16:27:26   -15.302417c  -4.81  -3.63   +2.9,-0.0,-0.0
# iter:  13 16:27:43   -15.302410c  -4.90  -3.58   +2.9,-0.0,-0.0
# iter:  14 16:28:00   -15.302407c  -5.31  -3.83   +2.9,-0.0,-0.0
# iter:  15 16:28:17   -15.302399c  -5.57  -3.84   +2.9,-0.0,-0.0
# iter:  16 16:28:35   -15.302396c  -5.83  -3.91   +2.9,-0.0,-0.0
# iter:  17 16:28:52   -15.302399c  -6.02  -4.31c  +2.9,-0.0,-0.0
# iter:  18 16:29:09   -15.302398c  -6.36  -4.39c  +2.9,-0.0,-0.0
# iter:  19 16:29:26   -15.302398c  -6.60  -4.66c  +2.9,-0.0,-0.0
# iter:  20 16:29:43   -15.302398c  -6.90  -4.97c  +2.9,-0.0,-0.0
# iter:  21 16:30:01   -15.302397c  -7.15  -5.00c  +2.9,-0.0,-0.0
# iter:  22 16:30:18   -15.302398c  -7.25  -5.04c  +2.9,-0.0,-0.0
# iter:  23 16:30:35   -15.302398c  -7.59c -5.03c  +2.9,-0.0,-0.0
scf_steps: 23
energies:  # eV
  coulomb:           0.132874
  zero:              0.054310
  xc:              -14.681117
  external:          0.000000
  kinetic:          -0.802563
  spinorbit:         0.000000
  entropy:          -0.011803
  total:           -15.308299
  extrapolated:    -15.302398

dipole moment: [-5.059641, -8.763055, -9.346073]  # |e|*Ang

total magnetic moment: [2.882124, -0.001582, -0.000000]

local magnetic moments: [
  [ 2.625157, -0.000000, -0.000000],  # V  0
  [-0.014241,  0.024532,  0.000000],  # Br 1
  [-0.014125,  0.024600, -0.000000]]  # Br 2


Fermi level: -1.158 eV

kpt = [-0.455, -0.455, 0.000], weight = 0.008:
  Band      eig [eV]   occ [0-1]
     0       -65.892       1.000
   ...
    19        -5.244       1.000
    20        -5.139       1.000
    21        -5.109       1.000
    22        -5.072       1.000
    23        -4.975       1.000
    24        -2.044       1.000
    25        -1.664       0.994
    26        -1.659       0.993
    27        -0.556       0.002
    28        -0.486       0.001
    29         0.099       0.000
    30         0.643       0.000
    31         0.702       0.000
    32         1.011       0.000
    33         1.061       0.000
    34         2.515       0.000
   ...
    41         5.788       0.000

kpt = [-0.455, -0.364, 0.000], weight = 0.008:
  Band      eig [eV]   occ [0-1]
     0       -65.892       1.000
   ...
    19        -5.225       1.000
    20        -5.108       1.000
    21        -5.075       1.000
    22        -5.021       1.000
    23        -4.962       1.000
    24        -2.024       1.000
    25        -1.716       0.996
    26        -1.658       0.993
    27        -0.577       0.003
    28        -0.508       0.001
    29         0.237       0.000
    30         0.614       0.000
    31         0.680       0.000
    32         0.993       0.000
    33         1.024       0.000
    34         2.455       0.000
   ...
    41         5.706       0.000

kpt = [-0.455, -0.273, 0.000], weight = 0.008:
  Band      eig [eV]   occ [0-1]
     0       -65.892       1.000
   ...
    19        -5.261       1.000
    20        -5.177       1.000
    21        -5.146       1.000
    22        -4.977       1.000
    23        -4.852       1.000
    24        -1.929       1.000
    25        -1.800       0.998
    26        -1.653       0.993
    27        -0.630       0.005
    28        -0.514       0.002
    29         0.406       0.000
    30         0.443       0.000
    31         0.675       0.000
    32         0.936       0.000
    33         1.019       0.000
    34         2.653       0.000
   ...
    41         5.407       0.000
(only showing first 3 out of 121 k-points)

Gap: 0.874 eV
Transition (v -> c):
  (s=0, k=5, n=26, [-0.45, 0.00, 0.00]) -> (s=0, k=52, n=27, [-0.09, 0.27, 0.00])
# Writing to gsq-23.gpw (mode='')

---

timing:  # [seconds]
  Total: 409.377  # ━━━━━━━━━━━━━━━━━━━━━━━━━━━━━━━━━━━━━━━━━━━━━━━━━━━━━━━━━
  Init:   12.090  # ━╸
  SCF:   396.866  # ━━━━━━━━━━━━━━━━━━━━━━━━━━━━━━━━━━━━━━━━━━━━━━━━━━━━━━━╸

Max RSS: 850.406  # MiB
