#  __  _  _
# | _ |_)|_||  |
# |__||  | ||/\| - 24.1.0

User:   s194099@n-62-29-15
Date:   Wed Apr 17 16:43:53 2024
Arch:   x86_64
Pid:    22110
CWD:    /zhome/84/5/147090/10302_NM/VBr2
Python: 3.8.5
gpaw:   /zhome/84/5/147090/venv1/gpaw/gpaw (10808453a8)
_gpaw:  /zhome/84/5/147090/venv1/gpaw/
        _gpaw.cpython-38-x86_64-linux-gnu.so (10808453a8)
ase:    /zhome/84/5/147090/venv1/ase/ase (version 3.23.0b1-c36115a2db)
numpy:  /zhome/84/5/147090/venv1/lib/python3.8/site-packages/numpy (version 1.24.4)
scipy:  /zhome/84/5/147090/venv1/lib/python3.8/site-packages/scipy (version 1.10.1)
libxc:  4.3.4
units:  Angstrom and eV
cores: 12
OpenMP: False
OMP_NUM_THREADS: 1

---
input parameters:
  kpts: 
    density: 6.0
    gamma: True
  magmoms: [[1, 0, 0], [0, 0, 0], [0, 0, 0]]
  mixer: 
    backend: 'pulay'
    beta: 0.05
    method: 'sum'
    nmaxold: 5
    weight: 100
  mode: 
    name: 'pw'
    ecut: 600
    qspiral: array([0.0952381, 0.0952381, 0.       ])
  parallel: 
    kpt: None
    domain: 1
    band: 1
    order: 'kdb'
    stridebands: False
    augment_grids: False
    sl_auto: False
    sl_default: None
    sl_diagonalize: None
    sl_inverse_cholesky: None
    sl_lcao: None
    sl_lrtddft: None
    use_elpa: False
    elpasolver: '2stage'
    buffer_size: None
    gpu: False
  symmetry: 
    point_group: False
    time_reversal: False
  xc: 
    name: 'LDA'

#                        
#                        
#                        
#                        
#                        
#              Br        
#                        
#        V               
#          Br            
#                        
#                        
#                        
#                        
#                        

atoms: [  # symbols, positions [Ang] and initial magnetic moments
  [  V, [   0.000000,    0.000000,    7.513573], [ 1.000,  0.000,  0.000]], # 0
  [ Br, [   1.984831,    1.145943,    9.027147], [ 0.000,  0.000,  0.000]], # 1
  [ Br, [  -0.000000,    2.291886,    6.000000], [ 0.000,  0.000,  0.000]]] # 2

cell: [  # Ang
#     x            y            z
  [   3.969662,    0.000000,    0.000000],
  [  -1.984831,    3.437828,    0.000000],
  [   0.000000,   -0.000000,   15.027147]]

periodic: [True      , True      , False     ]
lengths:  [  3.969662,   3.969662,  15.027147]  # Ang
angles:   [ 90.000000,  90.000000, 120.000000]

symmetry:
  number of symmetries: 1
  rotations: [
    [[ 1,  0,  0], [ 0,  1,  0], [ 0,  0,  1]]]

bz sampling:
  number of bz points: 121
  number of ibz points: 121
  monkhorst-pack size: [11, 11, 1]
  monkhorst-pack shift: [0, 0, 0]
  points and weights: [
    [[ -0.45454545,  -0.45454545,   0.00000000], 0.00826446],  # 0
    [[ -0.45454545,  -0.36363636,   0.00000000], 0.00826446],  # 1
    [[ -0.45454545,  -0.27272727,   0.00000000], 0.00826446],  # 2
    [[ -0.45454545,  -0.18181818,   0.00000000], 0.00826446],  # 3
    [[ -0.45454545,  -0.09090909,   0.00000000], 0.00826446],  # 4
    [[ -0.45454545,   0.00000000,   0.00000000], 0.00826446],  # 5
    [[ -0.45454545,   0.09090909,   0.00000000], 0.00826446],  # 6
    [[ -0.45454545,   0.18181818,   0.00000000], 0.00826446],  # 7
    [[ -0.45454545,   0.27272727,   0.00000000], 0.00826446],  # 8
    [[ -0.45454545,   0.36363636,   0.00000000], 0.00826446],  # 9
    # ...
    [[  0.45454545,   0.45454545,   0.00000000], 0.00826446]]  # 120

plane wave coefficients: 6874
cutoff: 600.0 eV

spin-components: 4  # (non-collinear spins)
bands: 42
valence electrons: 27.0
spin-degeneracy: 1
dtype: complex128

memory:
    wave functions: 1_113_974_400  # bytes  (92_831_200 per core)

parallelization:
    kpt:    12
    domain: 1
    band:   1

density:
  components: 4
  grid points: [24 24 90]
  charge: 0.0  # |e|

potential:
  grid points: [24 24 90]

species:
  V:
    name: Vanadium
    id: 7939ce69e6bb5930668dfcf9bb1979c3
    Z: 23.0
    valence: 13
    core: 10
    charge: 0.0
    file: /zhome/86/d/1666/PAW/gpaw-setups-0.9.20000/V.LDA.gz
    compensation charges: {type: gauss,
                           rc: 0.37,
                           lmax: 2}
    cutoffs: {filter: 2.14,
              core: 0.96}
    valence states:
      #              energy  rcut
      - 3s(2.00)   -69.819   1.254
      - 4s(2.00)    -4.846   1.254
      - 3p(6.00)   -43.961   1.281
      - 4p(0.00)    -1.526   1.281
      - 3d(3.00)    -5.381   1.169
      -  d          21.830   1.169
  
    # Using partial waves for V as LCAO basis

  Br:
    name: Bromine
    id: 10a25bbcb3273ec7d8d7f6fc01d2618d
    Z: 35.0
    valence: 7
    core: 28
    charge: 0.0
    file: /zhome/86/d/1666/PAW/gpaw-setups-0.9.20000/Br.LDA.gz
    compensation charges: {type: gauss,
                           rc: 0.35,
                           lmax: 2}
    cutoffs: {filter: 1.98,
              core: 2.38}
    valence states:
      #              energy  rcut
      - 4s(2.00)   -20.306   1.111
      - 4p(5.00)    -8.003   1.111
      -  s           6.906   1.111
      -  p          19.208   1.111
      -  d           0.000   1.111
  
    # Using partial waves for Br as LCAO basis

Reference energy: -167392.690611  # eV

eigensolver:
  name: 'Davidson'
  niter: 2
  converge_bands: 'occupied'
Density mixing:
  Method: sum
  Backend: pulay
  Linear mixing parameter: 0.05
  old densities: 5
  Damping of long wavelength oscillations: 100
occupation numbers:
  Fermi-Dirac:
    width: 0.1000  # eV
  

poisson solver:
  ecut: 4800.0  # eV

xc functional:
  name: None

convergence criteria:
- Maximum [total energy] change in last 3 cyles: 0.0005 eV / valence electron
- Maximum integral of absolute [dens]ity change: 0.0001 electrons / valence electron
- Maximum integral of absolute [eigenst]ate change: 4e-08 eV^2 / valence electron
maximum number of iterations: 333

#      iter     time        total  log10-change:
#                          energy   eigst   dens
# iter:   1 16:44:21   -14.536792                  +1.0,+0.0,+0.0
# iter:   2 16:44:38   -14.831172   -0.61  -1.44   +1.6,-0.0,+0.0
# iter:   3 16:44:55   -14.911325   -1.28  -1.47   +2.0,-0.0,-0.0
# iter:   4 16:45:13   -15.086083   -1.65  -1.55   +2.3,-0.0,-0.0
# iter:   5 16:45:30   -15.304651   -2.18  -1.69   +2.9,-0.0,-0.0
# iter:   6 16:45:47   -15.303056   -2.22  -2.09   +2.9,-0.0,+0.0
# iter:   7 16:46:04   -15.296739c  -2.90  -2.32   +2.9,-0.0,-0.0
# iter:   8 16:46:20   -15.296327c  -3.66  -2.68   +2.9,-0.0,-0.0
# iter:   9 16:46:37   -15.298981c  -3.21  -2.80   +2.9,-0.0,-0.0
# iter:  10 16:46:54   -15.297266c  -3.87  -2.59   +2.9,-0.0,-0.0
# iter:  11 16:47:11   -15.297261c  -4.54  -3.52   +2.9,-0.0,-0.0
# iter:  12 16:47:28   -15.297272c  -4.97  -3.60   +2.9,-0.0,-0.0
# iter:  13 16:47:45   -15.297250c  -5.12  -3.70   +2.9,-0.0,-0.0
# iter:  14 16:48:02   -15.297246c  -5.44  -3.91   +2.9,-0.0,-0.0
# iter:  15 16:48:19   -15.297242c  -5.66  -3.95   +2.9,-0.0,-0.0
# iter:  16 16:48:36   -15.297241c  -5.92  -4.08c  +3.0,-0.0,-0.0
# iter:  17 16:48:53   -15.297248c  -6.23  -4.11c  +3.0,-0.0,-0.0
# iter:  18 16:49:10   -15.297258c  -6.23  -4.28c  +3.0,-0.0,-0.0
# iter:  19 16:49:27   -15.297256c  -6.76  -4.30c  +3.0,-0.0,-0.0
# iter:  20 16:49:44   -15.297256c  -7.06  -4.47c  +3.0,-0.0,-0.0
# iter:  21 16:50:01   -15.297260c  -7.20  -4.50c  +3.0,-0.0,-0.0
# iter:  22 16:50:18   -15.297260c  -7.54c -4.71c  +3.0,-0.0,-0.0
scf_steps: 22
energies:  # eV
  coulomb:          -0.046013
  zero:              0.052953
  xc:              -14.749630
  external:          0.000000
  kinetic:          -0.548169
  spinorbit:         0.000000
  entropy:          -0.012799
  total:           -15.303659
  extrapolated:    -15.297260

dipole moment: [-5.183836, -8.977829, -9.797260]  # |e|*Ang

total magnetic moment: [2.954191, -0.001261, -0.000000]

local magnetic moments: [
  [ 2.649194,  0.000000, -0.000000],  # V  0
  [-0.029570,  0.020109,  0.000000],  # Br 1
  [-0.029522,  0.020179, -0.000000]]  # Br 2


Fermi level: -1.129 eV

kpt = [-0.455, -0.455, 0.000], weight = 0.008:
  Band      eig [eV]   occ [0-1]
     0       -65.865       1.000
   ...
    19        -5.189       1.000
    20        -5.100       1.000
    21        -5.088       1.000
    22        -5.058       1.000
    23        -4.977       1.000
    24        -2.123       1.000
    25        -1.637       0.994
    26        -1.617       0.992
    27        -0.513       0.002
    28        -0.427       0.001
    29        -0.049       0.000
    30         0.700       0.000
    31         0.788       0.000
    32         1.090       0.000
    33         1.145       0.000
    34         2.383       0.000
   ...
    41         5.487       0.000

kpt = [-0.455, -0.364, 0.000], weight = 0.008:
  Band      eig [eV]   occ [0-1]
     0       -65.865       1.000
   ...
    19        -5.266       1.000
    20        -5.155       1.000
    21        -5.090       1.000
    22        -5.050       1.000
    23        -4.915       1.000
    24        -2.007       1.000
    25        -1.667       0.995
    26        -1.627       0.993
    27        -0.566       0.004
    28        -0.476       0.001
    29         0.181       0.000
    30         0.663       0.000
    31         0.722       0.000
    32         1.033       0.000
    33         1.082       0.000
    34         2.573       0.000
   ...
    41         5.594       0.000

kpt = [-0.455, -0.273, 0.000], weight = 0.008:
  Band      eig [eV]   occ [0-1]
     0       -65.865       1.000
   ...
    19        -5.310       1.000
    20        -5.251       1.000
    21        -5.108       1.000
    22        -5.040       1.000
    23        -4.850       1.000
    24        -1.894       1.000
    25        -1.722       0.997
    26        -1.625       0.993
    27        -0.627       0.007
    28        -0.489       0.002
    29         0.420       0.000
    30         0.495       0.000
    31         0.691       0.000
    32         0.991       0.000
    33         1.052       0.000
    34         2.883       0.000
   ...
    41         5.565       0.000
(only showing first 3 out of 121 k-points)

Gap: 0.843 eV
Transition (v -> c):
  (s=0, k=103, n=26, [0.36, -0.09, 0.00]) -> (s=0, k=80, n=27, [0.18, -0.18, 0.00])
# Writing to gsq-26.gpw (mode='')

