#  __  _  _
# | _ |_)|_||  |
# |__||  | ||/\| - 24.1.0

User:   s194113@n-62-28-31
Date:   Thu Apr 18 15:22:33 2024
Arch:   x86_64
Pid:    12758
CWD:    /zhome/87/8/147075/10302/10302_NM/VBr2
Python: 3.8.5
gpaw:   /zhome/87/8/147075/venv-name/gpaw/gpaw (10808453a8)
_gpaw:  /zhome/87/8/147075/venv-name/gpaw/
        _gpaw.cpython-38-x86_64-linux-gnu.so (10808453a8)
ase:    /zhome/87/8/147075/venv-name/ase/ase (version 3.23.0b1-c36115a2db)
numpy:  /zhome/87/8/147075/venv-name/lib/python3.8/site-packages/numpy (version 1.24.4)
scipy:  /zhome/87/8/147075/venv-name/lib/python3.8/site-packages/scipy (version 1.10.1)
libxc:  4.3.4
units:  Angstrom and eV
cores: 12
OpenMP: False
OMP_NUM_THREADS: 1

---
input parameters:
  kpts: 
    density: 6.0
    gamma: True
  magmoms: [[1, 0, 0], [0, 0, 0], [0, 0, 0]]
  mixer: 
    backend: 'pulay'
    beta: 0.05
    method: 'sum'
    nmaxold: 5
    weight: 100
  mode: 
    name: 'pw'
    ecut: 600
    qspiral: array([0.21428571, 0.21428571, 0.        ])
  parallel: 
    kpt: None
    domain: 1
    band: 1
    order: 'kdb'
    stridebands: False
    augment_grids: False
    sl_auto: False
    sl_default: None
    sl_diagonalize: None
    sl_inverse_cholesky: None
    sl_lcao: None
    sl_lrtddft: None
    use_elpa: False
    elpasolver: '2stage'
    buffer_size: None
    gpu: False
  symmetry: 
    point_group: False
    time_reversal: False
  xc: 
    name: 'LDA'

#                        
#                        
#                        
#                        
#                        
#              Br        
#                        
#        V               
#          Br            
#                        
#                        
#                        
#                        
#                        

atoms: [  # symbols, positions [Ang] and initial magnetic moments
  [  V, [   0.000000,    0.000000,    7.513573], [ 1.000,  0.000,  0.000]], # 0
  [ Br, [   1.920000,    1.108513,    9.027147], [ 0.000,  0.000,  0.000]], # 1
  [ Br, [  -0.000000,    2.217025,    6.000000], [ 0.000,  0.000,  0.000]]] # 2

cell: [  # Ang
#     x            y            z
  [   3.840000,    0.000000,    0.000000],
  [  -1.920000,    3.325538,    0.000000],
  [   0.000000,   -0.000000,   15.027147]]

periodic: [True      , True      , False     ]
lengths:  [  3.840000,   3.840000,  15.027147]  # Ang
angles:   [ 90.000000,  90.000000, 120.000000]

symmetry:
  number of symmetries: 1
  rotations: [
    [[ 1,  0,  0], [ 0,  1,  0], [ 0,  0,  1]]]

bz sampling:
  number of bz points: 144
  number of ibz points: 144
  monkhorst-pack size: [12, 12, 1]
  monkhorst-pack shift: [0.041666666666666664, 0.041666666666666664, 0.0]
  points and weights: [
    [[ -0.41666667,  -0.41666667,   0.00000000], 0.00694444],  # 0
    [[ -0.41666667,  -0.33333333,   0.00000000], 0.00694444],  # 1
    [[ -0.41666667,  -0.25000000,   0.00000000], 0.00694444],  # 2
    [[ -0.41666667,  -0.16666667,   0.00000000], 0.00694444],  # 3
    [[ -0.41666667,  -0.08333333,   0.00000000], 0.00694444],  # 4
    [[ -0.41666667,  -0.00000000,   0.00000000], 0.00694444],  # 5
    [[ -0.41666667,   0.08333333,   0.00000000], 0.00694444],  # 6
    [[ -0.41666667,   0.16666667,   0.00000000], 0.00694444],  # 7
    [[ -0.41666667,   0.25000000,   0.00000000], 0.00694444],  # 8
    [[ -0.41666667,   0.33333333,   0.00000000], 0.00694444],  # 9
    # ...
    [[  0.50000000,   0.50000000,   0.00000000], 0.00694444]]  # 143

plane wave coefficients: 6439
cutoff: 600.0 eV

spin-components: 4  # (non-collinear spins)
bands: 42
valence electrons: 27.0
spin-degeneracy: 1
dtype: complex128

memory:
    wave functions: 1_238_243_328  # bytes  (103_186_944 per core)

parallelization:
    kpt:    12
    domain: 1
    band:   1

density:
  components: 4
  grid points: [24 24 90]
  charge: 0.0  # |e|

potential:
  grid points: [24 24 90]

species:
  V:
    name: Vanadium
    id: 7939ce69e6bb5930668dfcf9bb1979c3
    Z: 23.0
    valence: 13
    core: 10
    charge: 0.0
    file: /zhome/86/d/1666/PAW/gpaw-setups-0.9.20000/V.LDA.gz
    compensation charges: {type: gauss,
                           rc: 0.37,
                           lmax: 2}
    cutoffs: {filter: 2.14,
              core: 0.96}
    valence states:
      #              energy  rcut
      - 3s(2.00)   -69.819   1.254
      - 4s(2.00)    -4.846   1.254
      - 3p(6.00)   -43.961   1.281
      - 4p(0.00)    -1.526   1.281
      - 3d(3.00)    -5.381   1.169
      -  d          21.830   1.169
  
    # Using partial waves for V as LCAO basis

  Br:
    name: Bromine
    id: 10a25bbcb3273ec7d8d7f6fc01d2618d
    Z: 35.0
    valence: 7
    core: 28
    charge: 0.0
    file: /zhome/86/d/1666/PAW/gpaw-setups-0.9.20000/Br.LDA.gz
    compensation charges: {type: gauss,
                           rc: 0.35,
                           lmax: 2}
    cutoffs: {filter: 1.98,
              core: 2.38}
    valence states:
      #              energy  rcut
      - 4s(2.00)   -20.306   1.111
      - 4p(5.00)    -8.003   1.111
      -  s           6.906   1.111
      -  p          19.208   1.111
      -  d           0.000   1.111
  
    # Using partial waves for Br as LCAO basis

Reference energy: -167392.690611  # eV

eigensolver:
  name: 'Davidson'
  niter: 2
  converge_bands: 'occupied'
Density mixing:
  Method: sum
  Backend: pulay
  Linear mixing parameter: 0.05
  old densities: 5
  Damping of long wavelength oscillations: 100
occupation numbers:
  Fermi-Dirac:
    width: 0.1000  # eV
  

poisson solver:
  ecut: 4800.0  # eV

xc functional:
  name: None

convergence criteria:
- Maximum [total energy] change in last 3 cyles: 0.0005 eV / valence electron
- Maximum integral of absolute [dens]ity change: 0.0001 electrons / valence electron
- Maximum integral of absolute [eigenst]ate change: 4e-08 eV^2 / valence electron
maximum number of iterations: 333

#      iter     time        total  log10-change:
#                          energy   eigst   dens
# iter:   1 15:23:07   -14.716355                  +1.0,+0.0,+0.0
# iter:   2 15:23:28   -15.165774   -0.12  -1.42   +1.4,-0.0,-0.0
# iter:   3 15:23:48   -15.228612   -0.93  -1.46   +1.8,-0.0,-0.0
# iter:   4 15:24:09   -15.352837   -1.45  -1.56   +2.0,-0.0,+0.0
# iter:   5 15:24:29   -15.572714   -1.99  -1.68   +2.5,-0.0,+0.0
# iter:   6 15:24:50   -15.575424   -2.26  -2.06   +2.6,-0.0,+0.0
# iter:   7 15:25:10   -15.576731c  -2.81  -2.25   +2.7,-0.0,+0.0
# iter:   8 15:25:30   -15.574633c  -3.29  -2.61   +2.7,-0.0,+0.0
# iter:   9 15:25:51   -15.577473c  -3.60  -2.73   +2.7,-0.0,+0.0
# iter:  10 15:26:11   -15.577033c  -3.74  -2.80   +2.8,-0.0,+0.0
# iter:  11 15:26:32   -15.577053c  -4.42  -3.62   +2.8,-0.0,+0.0
# iter:  12 15:26:52   -15.577057c  -4.81  -3.62   +2.8,-0.0,+0.0
# iter:  13 15:27:13   -15.577075c  -5.09  -3.65   +2.8,-0.0,+0.0
# iter:  14 15:27:33   -15.577126c  -5.22  -3.76   +2.8,-0.0,+0.0
# iter:  15 15:27:53   -15.577131c  -5.50  -4.21c  +2.8,-0.0,+0.0
# iter:  16 15:28:13   -15.577131c  -5.82  -4.17c  +2.8,-0.0,+0.0
# iter:  17 15:28:34   -15.577133c  -6.09  -4.32c  +2.8,-0.0,+0.0
# iter:  18 15:28:54   -15.577128c  -6.32  -4.35c  +2.8,-0.0,+0.0
# iter:  19 15:29:14   -15.577126c  -6.63  -4.58c  +2.8,-0.0,+0.0
# iter:  20 15:29:34   -15.577126c  -6.88  -4.96c  +2.8,-0.0,+0.0
# iter:  21 15:29:55   -15.577126c  -7.09  -5.09c  +2.8,-0.0,+0.0
# iter:  22 15:30:15   -15.577126c  -7.34  -5.24c  +2.8,-0.0,+0.0
# iter:  23 15:30:35   -15.577125c  -7.59c -5.44c  +2.8,-0.0,+0.0
scf_steps: 23
energies:  # eV
  coulomb:          -3.131900
  zero:              0.046899
  xc:              -15.764869
  external:          0.000000
  kinetic:           3.277144
  spinorbit:         0.000000
  entropy:          -0.008798
  total:           -15.581525
  extrapolated:    -15.577125

dipole moment: [-4.792224, -8.300300, -8.801191]  # |e|*Ang

total magnetic moment: [2.768960, -0.001417, 0.000000]

local magnetic moments: [
  [ 2.564748, -0.000000,  0.000000],  # V  0
  [-0.003794,  0.016279,  0.000000],  # Br 1
  [-0.003645,  0.016313,  0.000000]]  # Br 2


Fermi level: -0.737 eV

kpt = [-0.417, -0.417, 0.000], weight = 0.007:
  Band      eig [eV]   occ [0-1]
     0       -65.494       1.000
   ...
    19        -5.064       1.000
    20        -4.992       1.000
    21        -4.990       1.000
    22        -4.877       1.000
    23        -4.855       1.000
    24        -1.702       1.000
    25        -1.306       0.997
    26        -1.265       0.995
    27        -0.092       0.002
    28        -0.011       0.001
    29         0.583       0.000
    30         0.993       0.000
    31         1.012       0.000
    32         1.438       0.000
    33         1.456       0.000
    34         2.941       0.000
   ...
    41         6.170       0.000

kpt = [-0.417, -0.333, 0.000], weight = 0.007:
  Band      eig [eV]   occ [0-1]
     0       -65.494       1.000
   ...
    19        -5.104       1.000
    20        -5.019       1.000
    21        -4.896       1.000
    22        -4.833       1.000
    23        -4.781       1.000
    24        -1.679       1.000
    25        -1.386       0.998
    26        -1.269       0.995
    27        -0.163       0.003
    28         0.020       0.001
    29         0.683       0.000
    30         0.891       0.000
    31         1.016       0.000
    32         1.395       0.000
    33         1.478       0.000
    34         2.930       0.000
   ...
    41         6.172       0.000

kpt = [-0.417, -0.250, 0.000], weight = 0.007:
  Band      eig [eV]   occ [0-1]
     0       -65.494       1.000
   ...
    19        -5.157       1.000
    20        -5.011       1.000
    21        -4.953       1.000
    22        -4.756       1.000
    23        -4.659       1.000
    24        -1.564       1.000
    25        -1.503       1.000
    26        -1.253       0.994
    27        -0.157       0.003
    28        -0.053       0.001
    29         0.690       0.000
    30         0.783       0.000
    31         1.027       0.000
    32         1.341       0.000
    33         1.425       0.000
    34         3.200       0.000
   ...
    41         5.461       0.000
(only showing first 3 out of 144 k-points)

Gap: 0.852 eV
Transition (v -> c):
  (s=0, k=137, n=26, [0.50, -0.00, 0.00]) -> (s=0, k=54, n=27, [-0.08, 0.08, 0.00])
# Writing to gsq-21.gpw (mode='')

---

timing:  # [seconds]
  Total: 482.081  # ━━━━━━━━━━━━━━━━━━━━━━━━━━━━━━━━━━━━━━━━━━━━━━━━━━━━━━━━━
  Init:   14.499  # ━╸
  SCF:   467.186  # ━━━━━━━━━━━━━━━━━━━━━━━━━━━━━━━━━━━━━━━━━━━━━━━━━━━━━━━

Max RSS: 867.211  # MiB
