#  __  _  _
# | _ |_)|_||  |
# |__||  | ||/\| - 24.1.0

User:   s194099@n-62-29-15
Date:   Wed Apr 17 13:44:26 2024
Arch:   x86_64
Pid:    22110
CWD:    /zhome/84/5/147090/10302_NM/VBr2
Python: 3.8.5
gpaw:   /zhome/84/5/147090/venv1/gpaw/gpaw (10808453a8)
_gpaw:  /zhome/84/5/147090/venv1/gpaw/
        _gpaw.cpython-38-x86_64-linux-gnu.so (10808453a8)
ase:    /zhome/84/5/147090/venv1/ase/ase (version 3.23.0b1-c36115a2db)
numpy:  /zhome/84/5/147090/venv1/lib/python3.8/site-packages/numpy (version 1.24.4)
scipy:  /zhome/84/5/147090/venv1/lib/python3.8/site-packages/scipy (version 1.10.1)
libxc:  4.3.4
units:  Angstrom and eV
cores: 12
OpenMP: False
OMP_NUM_THREADS: 1

---
input parameters:
  kpts: 
    density: 6.0
    gamma: True
  magmoms: [[1, 0, 0], [0, 0, 0], [0, 0, 0]]
  mixer: 
    backend: 'pulay'
    beta: 0.05
    method: 'sum'
    nmaxold: 5
    weight: 100
  mode: 
    name: 'pw'
    ecut: 600
    qspiral: array([0., 0., 0.])
  parallel: 
    kpt: None
    domain: 1
    band: 1
    order: 'kdb'
    stridebands: False
    augment_grids: False
    sl_auto: False
    sl_default: None
    sl_diagonalize: None
    sl_inverse_cholesky: None
    sl_lcao: None
    sl_lrtddft: None
    use_elpa: False
    elpasolver: '2stage'
    buffer_size: None
    gpu: False
  symmetry: 
    point_group: False
    time_reversal: False
  xc: 
    name: 'LDA'

#                        
#                        
#                        
#                        
#                        
#              Br        
#                        
#        V               
#          Br            
#                        
#                        
#                        
#                        
#                        

atoms: [  # symbols, positions [Ang] and initial magnetic moments
  [  V, [   0.000000,    0.000000,    7.513573], [ 1.000,  0.000,  0.000]], # 0
  [ Br, [   1.984831,    1.145943,    9.027147], [ 0.000,  0.000,  0.000]], # 1
  [ Br, [  -0.000000,    2.291886,    6.000000], [ 0.000,  0.000,  0.000]]] # 2

cell: [  # Ang
#     x            y            z
  [   3.969662,    0.000000,    0.000000],
  [  -1.984831,    3.437828,    0.000000],
  [   0.000000,   -0.000000,   15.027147]]

periodic: [True      , True      , False     ]
lengths:  [  3.969662,   3.969662,  15.027147]  # Ang
angles:   [ 90.000000,  90.000000, 120.000000]

symmetry:
  number of symmetries: 1
  rotations: [
    [[ 1,  0,  0], [ 0,  1,  0], [ 0,  0,  1]]]

bz sampling:
  number of bz points: 121
  number of ibz points: 121
  monkhorst-pack size: [11, 11, 1]
  monkhorst-pack shift: [0, 0, 0]
  points and weights: [
    [[ -0.45454545,  -0.45454545,   0.00000000], 0.00826446],  # 0
    [[ -0.45454545,  -0.36363636,   0.00000000], 0.00826446],  # 1
    [[ -0.45454545,  -0.27272727,   0.00000000], 0.00826446],  # 2
    [[ -0.45454545,  -0.18181818,   0.00000000], 0.00826446],  # 3
    [[ -0.45454545,  -0.09090909,   0.00000000], 0.00826446],  # 4
    [[ -0.45454545,   0.00000000,   0.00000000], 0.00826446],  # 5
    [[ -0.45454545,   0.09090909,   0.00000000], 0.00826446],  # 6
    [[ -0.45454545,   0.18181818,   0.00000000], 0.00826446],  # 7
    [[ -0.45454545,   0.27272727,   0.00000000], 0.00826446],  # 8
    [[ -0.45454545,   0.36363636,   0.00000000], 0.00826446],  # 9
    # ...
    [[  0.45454545,   0.45454545,   0.00000000], 0.00826446]]  # 120

plane wave coefficients: 6874
cutoff: 600.0 eV

spin-components: 4  # (non-collinear spins)
bands: 42
valence electrons: 27.0
spin-degeneracy: 1
dtype: complex128

memory:
    wave functions: 1_113_974_400  # bytes  (92_831_200 per core)

parallelization:
    kpt:    12
    domain: 1
    band:   1

density:
  components: 4
  grid points: [24 24 90]
  charge: 0.0  # |e|

potential:
  grid points: [24 24 90]

species:
  V:
    name: Vanadium
    id: 7939ce69e6bb5930668dfcf9bb1979c3
    Z: 23.0
    valence: 13
    core: 10
    charge: 0.0
    file: /zhome/86/d/1666/PAW/gpaw-setups-0.9.20000/V.LDA.gz
    compensation charges: {type: gauss,
                           rc: 0.37,
                           lmax: 2}
    cutoffs: {filter: 2.14,
              core: 0.96}
    valence states:
      #              energy  rcut
      - 3s(2.00)   -69.819   1.254
      - 4s(2.00)    -4.846   1.254
      - 3p(6.00)   -43.961   1.281
      - 4p(0.00)    -1.526   1.281
      - 3d(3.00)    -5.381   1.169
      -  d          21.830   1.169
  
    # Using partial waves for V as LCAO basis

  Br:
    name: Bromine
    id: 10a25bbcb3273ec7d8d7f6fc01d2618d
    Z: 35.0
    valence: 7
    core: 28
    charge: 0.0
    file: /zhome/86/d/1666/PAW/gpaw-setups-0.9.20000/Br.LDA.gz
    compensation charges: {type: gauss,
                           rc: 0.35,
                           lmax: 2}
    cutoffs: {filter: 1.98,
              core: 2.38}
    valence states:
      #              energy  rcut
      - 4s(2.00)   -20.306   1.111
      - 4p(5.00)    -8.003   1.111
      -  s           6.906   1.111
      -  p          19.208   1.111
      -  d           0.000   1.111
  
    # Using partial waves for Br as LCAO basis

Reference energy: -167392.690611  # eV

eigensolver:
  name: 'Davidson'
  niter: 2
  converge_bands: 'occupied'
Density mixing:
  Method: sum
  Backend: pulay
  Linear mixing parameter: 0.05
  old densities: 5
  Damping of long wavelength oscillations: 100
occupation numbers:
  Fermi-Dirac:
    width: 0.1000  # eV
  

poisson solver:
  ecut: 4800.0  # eV

xc functional:
  name: None

convergence criteria:
- Maximum [total energy] change in last 3 cyles: 0.0005 eV / valence electron
- Maximum integral of absolute [dens]ity change: 0.0001 electrons / valence electron
- Maximum integral of absolute [eigenst]ate change: 4e-08 eV^2 / valence electron
maximum number of iterations: 333

#      iter     time        total  log10-change:
#                          energy   eigst   dens
# iter:   1 13:44:56   -14.581466                  +1.0,+0.0,+0.0
# iter:   2 13:45:14   -14.819716   -0.72  -1.44   +1.6,+0.0,+0.0
# iter:   3 13:45:31   -14.898962   -1.30  -1.47   +2.0,-0.0,+0.0
# iter:   4 13:45:48   -15.070754   -1.65  -1.55   +2.3,-0.0,+0.0
# iter:   5 13:46:05   -15.299908   -2.13  -1.68   +2.9,-0.0,+0.0
# iter:   6 13:46:22   -15.298593   -2.22  -2.09   +3.0,-0.0,+0.0
# iter:   7 13:46:39   -15.291793c  -2.92  -2.32   +2.9,-0.0,-0.0
# iter:   8 13:46:56   -15.291803c  -3.50  -2.71   +3.0,-0.0,-0.0
# iter:   9 13:47:13   -15.294407c  -3.19  -2.80   +3.0,-0.0,-0.0
# iter:  10 13:47:30   -15.292652c  -3.80  -2.58   +3.0,-0.0,-0.0
# iter:  11 13:47:47   -15.292655c  -4.45  -3.54   +3.0,-0.0,+0.0
# iter:  12 13:48:05   -15.292675c  -4.86  -3.61   +3.0,-0.0,-0.0
# iter:  13 13:48:22   -15.292665c  -4.92  -3.71   +3.0,+0.0,-0.0
# iter:  14 13:48:39   -15.292661c  -5.32  -3.89   +3.0,-0.0,-0.0
# iter:  15 13:48:56   -15.292655c  -5.63  -3.93   +3.0,-0.0,-0.0
# iter:  16 13:49:13   -15.292651c  -5.94  -3.95   +3.0,-0.0,-0.0
# iter:  17 13:49:30   -15.292653c  -6.23  -4.06c  +3.0,-0.0,-0.0
# iter:  18 13:49:48   -15.292653c  -6.38  -4.12c  +3.0,+0.0,+0.0
# iter:  19 13:50:05   -15.292649c  -6.77  -4.20c  +3.0,+0.0,+0.0
# iter:  20 13:50:22   -15.292649c  -7.09  -4.28c  +3.0,+0.0,+0.0
# iter:  21 13:50:39   -15.292652c  -7.13  -4.31c  +3.0,-0.0,+0.0
# iter:  22 13:50:57   -15.292651c  -7.43c -4.64c  +3.0,+0.0,+0.0
scf_steps: 22
energies:  # eV
  coulomb:          -0.205096
  zero:              0.051577
  xc:              -14.804118
  external:          0.000000
  kinetic:          -0.327952
  spinorbit:         0.000000
  entropy:          -0.014125
  total:           -15.299714
  extrapolated:    -15.292651

dipole moment: [-5.313280, -9.201147, -10.071872]  # |e|*Ang

total magnetic moment: [2.999772, 0.000000, 0.000000]

local magnetic moments: [
  [ 2.666689,  0.000000,  0.000000],  # V  0
  [-0.038930, -0.000000, -0.000000],  # Br 1
  [-0.038930,  0.000000,  0.000000]]  # Br 2


Fermi level: -1.117 eV

kpt = [-0.455, -0.455, 0.000], weight = 0.008:
  Band      eig [eV]   occ [0-1]
     0       -65.847       1.000
   ...
    19        -5.149       1.000
    20        -5.148       1.000
    21        -5.096       1.000
    22        -5.060       1.000
    23        -4.955       1.000
    24        -2.162       1.000
    25        -1.621       0.994
    26        -1.590       0.991
    27        -0.485       0.002
    28        -0.382       0.001
    29        -0.144       0.000
    30         0.733       0.000
    31         0.838       0.000
    32         1.134       0.000
    33         1.198       0.000
    34         2.354       0.000
   ...
    41         5.400       0.000

kpt = [-0.455, -0.364, 0.000], weight = 0.008:
  Band      eig [eV]   occ [0-1]
     0       -65.847       1.000
   ...
    19        -5.260       1.000
    20        -5.242       1.000
    21        -5.105       1.000
    22        -5.054       1.000
    23        -4.887       1.000
    24        -1.981       1.000
    25        -1.636       0.994
    26        -1.607       0.993
    27        -0.596       0.005
    28        -0.423       0.001
    29         0.150       0.000
    30         0.676       0.000
    31         0.750       0.000
    32         1.048       0.000
    33         1.136       0.000
    34         2.768       0.000
   ...
    41         5.508       0.000

kpt = [-0.455, -0.273, 0.000], weight = 0.008:
  Band      eig [eV]   occ [0-1]
     0       -65.847       1.000
   ...
    19        -5.327       1.000
    20        -5.307       1.000
    21        -5.131       1.000
    22        -5.016       1.000
    23        -4.852       1.000
    24        -1.878       1.000
    25        -1.671       0.996
    26        -1.606       0.992
    27        -0.645       0.009
    28        -0.450       0.001
    29         0.415       0.000
    30         0.540       0.000
    31         0.694       0.000
    32         1.017       0.000
    33         1.090       0.000
    34         3.062       0.000
   ...
    41         5.771       0.000
(only showing first 3 out of 121 k-points)

Gap: 0.789 eV
Transition (v -> c):
  (s=0, k=16, n=26, [-0.36, 0.00, 0.00]) -> (s=0, k=82, n=27, [0.18, 0.00, 0.00])
# Writing to gsq-00.gpw (mode='')

---

timing:  # [seconds]
  Total: 779.581  # ━━━━━━━━━━━━━━━━━━━━━━━━━━━━━━━━━━━━━━━━━━━━━━━━━━━━━━━━━
  Init:   13.590  # ━
  SCF:   376.241  # ━━━━━━━━━━━━━━━━━━━━━━━━━━━╸

Max RSS: 610.891  # MiB
