#  __  _  _
# | _ |_)|_||  |
# |__||  | ||/\| - 24.1.0

User:   s194099@n-62-29-15
Date:   Wed Apr 17 16:03:32 2024
Arch:   x86_64
Pid:    22110
CWD:    /zhome/84/5/147090/10302_NM/VBr2
Python: 3.8.5
gpaw:   /zhome/84/5/147090/venv1/gpaw/gpaw (10808453a8)
_gpaw:  /zhome/84/5/147090/venv1/gpaw/
        _gpaw.cpython-38-x86_64-linux-gnu.so (10808453a8)
ase:    /zhome/84/5/147090/venv1/ase/ase (version 3.23.0b1-c36115a2db)
numpy:  /zhome/84/5/147090/venv1/lib/python3.8/site-packages/numpy (version 1.24.4)
scipy:  /zhome/84/5/147090/venv1/lib/python3.8/site-packages/scipy (version 1.10.1)
libxc:  4.3.4
units:  Angstrom and eV
cores: 12
OpenMP: False
OMP_NUM_THREADS: 1

---
input parameters:
  kpts: 
    density: 6.0
    gamma: True
  magmoms: [[1, 0, 0], [0, 0, 0], [0, 0, 0]]
  mixer: 
    backend: 'pulay'
    beta: 0.05
    method: 'sum'
    nmaxold: 5
    weight: 100
  mode: 
    name: 'pw'
    ecut: 600
    qspiral: array([0.23809524, 0.23809524, 0.        ])
  parallel: 
    kpt: None
    domain: 1
    band: 1
    order: 'kdb'
    stridebands: False
    augment_grids: False
    sl_auto: False
    sl_default: None
    sl_diagonalize: None
    sl_inverse_cholesky: None
    sl_lcao: None
    sl_lrtddft: None
    use_elpa: False
    elpasolver: '2stage'
    buffer_size: None
    gpu: False
  symmetry: 
    point_group: False
    time_reversal: False
  xc: 
    name: 'LDA'

#                        
#                        
#                        
#                        
#                        
#              Br        
#                        
#        V               
#          Br            
#                        
#                        
#                        
#                        
#                        

atoms: [  # symbols, positions [Ang] and initial magnetic moments
  [  V, [   0.000000,    0.000000,    7.513573], [ 1.000,  0.000,  0.000]], # 0
  [ Br, [   1.984831,    1.145943,    9.027147], [ 0.000,  0.000,  0.000]], # 1
  [ Br, [  -0.000000,    2.291886,    6.000000], [ 0.000,  0.000,  0.000]]] # 2

cell: [  # Ang
#     x            y            z
  [   3.969662,    0.000000,    0.000000],
  [  -1.984831,    3.437828,    0.000000],
  [   0.000000,   -0.000000,   15.027147]]

periodic: [True      , True      , False     ]
lengths:  [  3.969662,   3.969662,  15.027147]  # Ang
angles:   [ 90.000000,  90.000000, 120.000000]

symmetry:
  number of symmetries: 1
  rotations: [
    [[ 1,  0,  0], [ 0,  1,  0], [ 0,  0,  1]]]

bz sampling:
  number of bz points: 121
  number of ibz points: 121
  monkhorst-pack size: [11, 11, 1]
  monkhorst-pack shift: [0, 0, 0]
  points and weights: [
    [[ -0.45454545,  -0.45454545,   0.00000000], 0.00826446],  # 0
    [[ -0.45454545,  -0.36363636,   0.00000000], 0.00826446],  # 1
    [[ -0.45454545,  -0.27272727,   0.00000000], 0.00826446],  # 2
    [[ -0.45454545,  -0.18181818,   0.00000000], 0.00826446],  # 3
    [[ -0.45454545,  -0.09090909,   0.00000000], 0.00826446],  # 4
    [[ -0.45454545,   0.00000000,   0.00000000], 0.00826446],  # 5
    [[ -0.45454545,   0.09090909,   0.00000000], 0.00826446],  # 6
    [[ -0.45454545,   0.18181818,   0.00000000], 0.00826446],  # 7
    [[ -0.45454545,   0.27272727,   0.00000000], 0.00826446],  # 8
    [[ -0.45454545,   0.36363636,   0.00000000], 0.00826446],  # 9
    # ...
    [[  0.45454545,   0.45454545,   0.00000000], 0.00826446]]  # 120

plane wave coefficients: 6874
cutoff: 600.0 eV

spin-components: 4  # (non-collinear spins)
bands: 42
valence electrons: 27.0
spin-degeneracy: 1
dtype: complex128

memory:
    wave functions: 1_113_974_400  # bytes  (92_831_200 per core)

parallelization:
    kpt:    12
    domain: 1
    band:   1

density:
  components: 4
  grid points: [24 24 90]
  charge: 0.0  # |e|

potential:
  grid points: [24 24 90]

species:
  V:
    name: Vanadium
    id: 7939ce69e6bb5930668dfcf9bb1979c3
    Z: 23.0
    valence: 13
    core: 10
    charge: 0.0
    file: /zhome/86/d/1666/PAW/gpaw-setups-0.9.20000/V.LDA.gz
    compensation charges: {type: gauss,
                           rc: 0.37,
                           lmax: 2}
    cutoffs: {filter: 2.14,
              core: 0.96}
    valence states:
      #              energy  rcut
      - 3s(2.00)   -69.819   1.254
      - 4s(2.00)    -4.846   1.254
      - 3p(6.00)   -43.961   1.281
      - 4p(0.00)    -1.526   1.281
      - 3d(3.00)    -5.381   1.169
      -  d          21.830   1.169
  
    # Using partial waves for V as LCAO basis

  Br:
    name: Bromine
    id: 10a25bbcb3273ec7d8d7f6fc01d2618d
    Z: 35.0
    valence: 7
    core: 28
    charge: 0.0
    file: /zhome/86/d/1666/PAW/gpaw-setups-0.9.20000/Br.LDA.gz
    compensation charges: {type: gauss,
                           rc: 0.35,
                           lmax: 2}
    cutoffs: {filter: 1.98,
              core: 2.38}
    valence states:
      #              energy  rcut
      - 4s(2.00)   -20.306   1.111
      - 4p(5.00)    -8.003   1.111
      -  s           6.906   1.111
      -  p          19.208   1.111
      -  d           0.000   1.111
  
    # Using partial waves for Br as LCAO basis

Reference energy: -167392.690611  # eV

eigensolver:
  name: 'Davidson'
  niter: 2
  converge_bands: 'occupied'
Density mixing:
  Method: sum
  Backend: pulay
  Linear mixing parameter: 0.05
  old densities: 5
  Damping of long wavelength oscillations: 100
occupation numbers:
  Fermi-Dirac:
    width: 0.1000  # eV
  

poisson solver:
  ecut: 4800.0  # eV

xc functional:
  name: None

convergence criteria:
- Maximum [total energy] change in last 3 cyles: 0.0005 eV / valence electron
- Maximum integral of absolute [dens]ity change: 0.0001 electrons / valence electron
- Maximum integral of absolute [eigenst]ate change: 4e-08 eV^2 / valence electron
maximum number of iterations: 333

#      iter     time        total  log10-change:
#                          energy   eigst   dens
# iter:   1 16:04:00   -14.253741                  +1.0,+0.0,+0.0
# iter:   2 16:04:17   -14.825417   -0.08  -1.44   +1.5,-0.0,-0.0
# iter:   3 16:04:35   -14.931825   -0.89  -1.47   +1.8,-0.0,-0.0
# iter:   4 16:04:52   -15.101698   -1.44  -1.55   +2.1,-0.0,+0.0
# iter:   5 16:05:10   -15.311920   -2.01  -1.68   +2.6,-0.0,+0.0
# iter:   6 16:05:27   -15.307453   -2.08  -2.06   +2.7,-0.0,+0.0
# iter:   7 16:05:44   -15.305826c  -2.86  -2.33   +2.8,-0.0,+0.0
# iter:   8 16:06:01   -15.304518c  -3.26  -2.71   +2.7,-0.0,+0.0
# iter:   9 16:06:19   -15.305918c  -3.55  -2.76   +2.8,-0.0,+0.0
# iter:  10 16:06:36   -15.305669c  -3.94  -2.96   +2.8,-0.0,+0.0
# iter:  11 16:06:53   -15.305653c  -4.37  -3.55   +2.8,-0.0,+0.0
# iter:  12 16:07:10   -15.305652c  -4.73  -3.62   +2.8,-0.0,+0.0
# iter:  13 16:07:27   -15.305649c  -4.97  -3.71   +2.8,-0.0,+0.0
# iter:  14 16:07:44   -15.305646c  -5.22  -3.87   +2.8,-0.0,+0.0
# iter:  15 16:08:01   -15.305649c  -5.47  -3.90   +2.8,-0.0,+0.0
# iter:  16 16:08:19   -15.305684c  -5.59  -3.92   +2.8,-0.0,+0.0
# iter:  17 16:08:36   -15.305679c  -5.92  -4.45c  +2.8,-0.0,+0.0
# iter:  18 16:08:53   -15.305678c  -6.19  -4.78c  +2.8,-0.0,+0.0
# iter:  19 16:09:10   -15.305678c  -6.44  -4.83c  +2.8,-0.0,+0.0
# iter:  20 16:09:27   -15.305678c  -6.69  -4.92c  +2.8,-0.0,+0.0
# iter:  21 16:09:44   -15.305679c  -6.93  -4.93c  +2.8,-0.0,+0.0
# iter:  22 16:10:01   -15.305679c  -7.17  -4.95c  +2.8,-0.0,+0.0
# iter:  23 16:10:18   -15.305678c  -7.41c -5.01c  +2.8,-0.0,+0.0
scf_steps: 23
energies:  # eV
  coulomb:           0.268421
  zero:              0.054268
  xc:              -14.622922
  external:          0.000000
  kinetic:          -0.999689
  spinorbit:         0.000000
  entropy:          -0.011513
  total:           -15.311435
  extrapolated:    -15.305678

dipole moment: [-4.927420, -8.534135, -8.791882]  # |e|*Ang

total magnetic moment: [2.797377, -0.001081, 0.000000]

local magnetic moments: [
  [ 2.604082,  0.000000,  0.000000],  # V  0
  [-0.001319,  0.016531, -0.000000],  # Br 1
  [-0.001160,  0.016543, -0.000000]]  # Br 2


Fermi level: -1.191 eV

kpt = [-0.455, -0.455, 0.000], weight = 0.008:
  Band      eig [eV]   occ [0-1]
     0       -65.916       1.000
   ...
    19        -5.319       1.000
    20        -5.155       1.000
    21        -5.137       1.000
    22        -5.061       1.000
    23        -4.994       1.000
    24        -1.953       1.000
    25        -1.704       0.994
    26        -1.684       0.993
    27        -0.592       0.003
    28        -0.548       0.002
    29         0.268       0.000
    30         0.594       0.000
    31         0.602       0.000
    32         0.935       0.000
    33         0.971       0.000
    34         2.757       0.000
   ...
    41         5.605       0.000

kpt = [-0.455, -0.364, 0.000], weight = 0.008:
  Band      eig [eV]   occ [0-1]
     0       -65.916       1.000
   ...
    19        -5.227       1.000
    20        -5.173       1.000
    21        -5.121       1.000
    22        -4.979       1.000
    23        -4.972       1.000
    24        -1.991       1.000
    25        -1.766       0.997
    26        -1.689       0.993
    27        -0.633       0.004
    28        -0.517       0.001
    29         0.312       0.000
    30         0.548       0.000
    31         0.621       0.000
    32         0.919       0.000
    33         0.989       0.000
    34         2.501       0.000
   ...
    41         5.663       0.000

kpt = [-0.455, -0.273, 0.000], weight = 0.008:
  Band      eig [eV]   occ [0-1]
     0       -65.917       1.000
   ...
    19        -5.273       1.000
    20        -5.171       1.000
    21        -5.028       1.000
    22        -4.874       1.000
    23        -4.858       1.000
    24        -1.974       1.000
    25        -1.862       0.999
    26        -1.680       0.993
    27        -0.665       0.005
    28        -0.511       0.001
    29         0.339       0.000
    30         0.442       0.000
    31         0.641       0.000
    32         0.871       0.000
    33         0.993       0.000
    34         2.498       0.000
   ...
    41         5.127       0.000
(only showing first 3 out of 121 k-points)

Gap: 0.845 eV
Transition (v -> c):
  (s=0, k=115, n=26, [0.45, 0.00, 0.00]) -> (s=0, k=70, n=27, [0.09, -0.09, 0.00])
# Writing to gsq-20.gpw (mode='')

---

timing:  # [seconds]
  Total: 408.006  # ━━━━━━━━━━━━━━━━━━━━━━━━━━━━━━━━━━━━━━━━━━━━━━━━━━━━━━━━━
  Init:   12.020  # ━╸
  SCF:   394.631  # ━━━━━━━━━━━━━━━━━━━━━━━━━━━━━━━━━━━━━━━━━━━━━━━━━━━━━━━

Max RSS: 817.797  # MiB
