#  __  _  _
# | _ |_)|_||  |
# |__||  | ||/\| - 24.1.0

User:   s194099@n-62-29-15
Date:   Wed Apr 17 14:50:16 2024
Arch:   x86_64
Pid:    22110
CWD:    /zhome/84/5/147090/10302_NM/VBr2
Python: 3.8.5
gpaw:   /zhome/84/5/147090/venv1/gpaw/gpaw (10808453a8)
_gpaw:  /zhome/84/5/147090/venv1/gpaw/
        _gpaw.cpython-38-x86_64-linux-gnu.so (10808453a8)
ase:    /zhome/84/5/147090/venv1/ase/ase (version 3.23.0b1-c36115a2db)
numpy:  /zhome/84/5/147090/venv1/lib/python3.8/site-packages/numpy (version 1.24.4)
scipy:  /zhome/84/5/147090/venv1/lib/python3.8/site-packages/scipy (version 1.10.1)
libxc:  4.3.4
units:  Angstrom and eV
cores: 12
OpenMP: False
OMP_NUM_THREADS: 1

---
input parameters:
  kpts: 
    density: 6.0
    gamma: True
  magmoms: [[1, 0, 0], [0, 0, 0], [0, 0, 0]]
  mixer: 
    backend: 'pulay'
    beta: 0.05
    method: 'sum'
    nmaxold: 5
    weight: 100
  mode: 
    name: 'pw'
    ecut: 600
    qspiral: array([0.5, 0. , 0. ])
  parallel: 
    kpt: None
    domain: 1
    band: 1
    order: 'kdb'
    stridebands: False
    augment_grids: False
    sl_auto: False
    sl_default: None
    sl_diagonalize: None
    sl_inverse_cholesky: None
    sl_lcao: None
    sl_lrtddft: None
    use_elpa: False
    elpasolver: '2stage'
    buffer_size: None
    gpu: False
  symmetry: 
    point_group: False
    time_reversal: False
  xc: 
    name: 'LDA'

#                        
#                        
#                        
#                        
#                        
#              Br        
#                        
#        V               
#          Br            
#                        
#                        
#                        
#                        
#                        

atoms: [  # symbols, positions [Ang] and initial magnetic moments
  [  V, [   0.000000,    0.000000,    7.513573], [ 1.000,  0.000,  0.000]], # 0
  [ Br, [   1.984831,    1.145943,    9.027147], [ 0.000,  0.000,  0.000]], # 1
  [ Br, [  -0.000000,    2.291886,    6.000000], [ 0.000,  0.000,  0.000]]] # 2

cell: [  # Ang
#     x            y            z
  [   3.969662,    0.000000,    0.000000],
  [  -1.984831,    3.437828,    0.000000],
  [   0.000000,   -0.000000,   15.027147]]

periodic: [True      , True      , False     ]
lengths:  [  3.969662,   3.969662,  15.027147]  # Ang
angles:   [ 90.000000,  90.000000, 120.000000]

symmetry:
  number of symmetries: 1
  rotations: [
    [[ 1,  0,  0], [ 0,  1,  0], [ 0,  0,  1]]]

bz sampling:
  number of bz points: 121
  number of ibz points: 121
  monkhorst-pack size: [11, 11, 1]
  monkhorst-pack shift: [0, 0, 0]
  points and weights: [
    [[ -0.45454545,  -0.45454545,   0.00000000], 0.00826446],  # 0
    [[ -0.45454545,  -0.36363636,   0.00000000], 0.00826446],  # 1
    [[ -0.45454545,  -0.27272727,   0.00000000], 0.00826446],  # 2
    [[ -0.45454545,  -0.18181818,   0.00000000], 0.00826446],  # 3
    [[ -0.45454545,  -0.09090909,   0.00000000], 0.00826446],  # 4
    [[ -0.45454545,   0.00000000,   0.00000000], 0.00826446],  # 5
    [[ -0.45454545,   0.09090909,   0.00000000], 0.00826446],  # 6
    [[ -0.45454545,   0.18181818,   0.00000000], 0.00826446],  # 7
    [[ -0.45454545,   0.27272727,   0.00000000], 0.00826446],  # 8
    [[ -0.45454545,   0.36363636,   0.00000000], 0.00826446],  # 9
    # ...
    [[  0.45454545,   0.45454545,   0.00000000], 0.00826446]]  # 120

plane wave coefficients: 6874
cutoff: 600.0 eV

spin-components: 4  # (non-collinear spins)
bands: 42
valence electrons: 27.0
spin-degeneracy: 1
dtype: complex128

memory:
    wave functions: 1_113_974_400  # bytes  (92_831_200 per core)

parallelization:
    kpt:    12
    domain: 1
    band:   1

density:
  components: 4
  grid points: [24 24 90]
  charge: 0.0  # |e|

potential:
  grid points: [24 24 90]

species:
  V:
    name: Vanadium
    id: 7939ce69e6bb5930668dfcf9bb1979c3
    Z: 23.0
    valence: 13
    core: 10
    charge: 0.0
    file: /zhome/86/d/1666/PAW/gpaw-setups-0.9.20000/V.LDA.gz
    compensation charges: {type: gauss,
                           rc: 0.37,
                           lmax: 2}
    cutoffs: {filter: 2.14,
              core: 0.96}
    valence states:
      #              energy  rcut
      - 3s(2.00)   -69.819   1.254
      - 4s(2.00)    -4.846   1.254
      - 3p(6.00)   -43.961   1.281
      - 4p(0.00)    -1.526   1.281
      - 3d(3.00)    -5.381   1.169
      -  d          21.830   1.169
  
    # Using partial waves for V as LCAO basis

  Br:
    name: Bromine
    id: 10a25bbcb3273ec7d8d7f6fc01d2618d
    Z: 35.0
    valence: 7
    core: 28
    charge: 0.0
    file: /zhome/86/d/1666/PAW/gpaw-setups-0.9.20000/Br.LDA.gz
    compensation charges: {type: gauss,
                           rc: 0.35,
                           lmax: 2}
    cutoffs: {filter: 1.98,
              core: 2.38}
    valence states:
      #              energy  rcut
      - 4s(2.00)   -20.306   1.111
      - 4p(5.00)    -8.003   1.111
      -  s           6.906   1.111
      -  p          19.208   1.111
      -  d           0.000   1.111
  
    # Using partial waves for Br as LCAO basis

Reference energy: -167392.690611  # eV

eigensolver:
  name: 'Davidson'
  niter: 2
  converge_bands: 'occupied'
Density mixing:
  Method: sum
  Backend: pulay
  Linear mixing parameter: 0.05
  old densities: 5
  Damping of long wavelength oscillations: 100
occupation numbers:
  Fermi-Dirac:
    width: 0.1000  # eV
  

poisson solver:
  ecut: 4800.0  # eV

xc functional:
  name: None

convergence criteria:
- Maximum [total energy] change in last 3 cyles: 0.0005 eV / valence electron
- Maximum integral of absolute [dens]ity change: 0.0001 electrons / valence electron
- Maximum integral of absolute [eigenst]ate change: 4e-08 eV^2 / valence electron
maximum number of iterations: 333

#      iter     time        total  log10-change:
#                          energy   eigst   dens
# iter:   1 14:50:44   -14.066877                  +1.0,+0.0,+0.0
# iter:   2 14:51:02   -14.794158   +0.05  -1.45   +1.5,-0.0,-0.0
# iter:   3 14:51:19   -14.918833   -0.75  -1.47   +1.7,-0.0,+0.0
# iter:   4 14:51:36   -15.097459   -1.35  -1.54   +2.0,-0.0,+0.0
# iter:   5 14:51:53   -15.307266   -1.91  -1.68   +2.5,-0.0,+0.0
# iter:   6 14:52:10   -15.302458   -2.10  -2.03   +2.6,-0.0,+0.0
# iter:   7 14:52:28   -15.306309c  -2.46  -2.31   +2.7,-0.0,+0.0
# iter:   8 14:52:45   -15.302630c  -3.00  -2.56   +2.7,-0.0,+0.0
# iter:   9 14:53:02   -15.303776c  -3.56  -2.73   +2.7,-0.0,+0.0
# iter:  10 14:53:19   -15.303723c  -4.01  -3.30   +2.7,-0.0,+0.0
# iter:  11 14:53:36   -15.303775c  -4.32  -3.59   +2.7,+0.0,+0.0
# iter:  12 14:53:53   -15.303793c  -4.59  -3.63   +2.7,+0.0,+0.0
# iter:  13 14:54:11   -15.303819c  -4.81  -3.66   +2.7,+0.0,+0.0
# iter:  14 14:54:28   -15.303818c  -5.10  -3.81   +2.7,+0.0,+0.0
# iter:  15 14:54:45   -15.303816c  -5.28  -3.90   +2.7,+0.0,+0.0
# iter:  16 14:55:02   -15.303806c  -5.55  -4.10c  +2.7,+0.0,+0.0
# iter:  17 14:55:19   -15.303808c  -5.79  -4.14c  +2.7,+0.0,+0.0
# iter:  18 14:55:36   -15.303806c  -5.95  -4.17c  +2.7,+0.0,+0.0
# iter:  19 14:55:53   -15.303803c  -6.24  -4.22c  +2.7,+0.0,+0.0
# iter:  20 14:56:10   -15.303803c  -6.47  -4.37c  +2.7,+0.0,+0.0
# iter:  21 14:56:27   -15.303806c  -6.64  -4.42c  +2.7,+0.0,+0.0
# iter:  22 14:56:44   -15.303806c  -6.87  -4.74c  +2.7,+0.0,+0.0
# iter:  23 14:57:01   -15.303806c  -7.10  -4.83c  +2.7,+0.0,+0.0
# iter:  24 14:57:18   -15.303806c  -7.30  -4.88c  +2.7,+0.0,+0.0
# iter:  25 14:57:35   -15.303805c  -7.48c -4.93c  +2.7,+0.0,-0.0
scf_steps: 25
energies:  # eV
  coulomb:           0.259894
  zero:              0.052842
  xc:              -14.624664
  external:          0.000000
  kinetic:          -0.985707
  spinorbit:         0.000000
  entropy:          -0.012340
  total:           -15.309975
  extrapolated:    -15.303805

dipole moment: [-4.596777, -8.598808, -8.459268]  # |e|*Ang

total magnetic moment: [2.744308, 0.000000, -0.000000]

local magnetic moments: [
  [ 2.603128,  0.000000,  0.000000],  # V  0
  [ 0.012372,  0.000000,  0.000000],  # Br 1
  [-0.012372,  0.000000,  0.000000]]  # Br 2


Fermi level: -1.211 eV

kpt = [-0.455, -0.455, 0.000], weight = 0.008:
  Band      eig [eV]   occ [0-1]
     0       -65.921       1.000
   ...
    19        -5.340       1.000
    20        -5.203       1.000
    21        -5.168       1.000
    22        -4.968       1.000
    23        -4.785       1.000
    24        -1.943       0.999
    25        -1.772       0.996
    26        -1.668       0.990
    27        -0.678       0.005
    28        -0.515       0.001
    29         0.318       0.000
    30         0.375       0.000
    31         0.615       0.000
    32         0.923       0.000
    33         0.967       0.000
    34         2.843       0.000
   ...
    41         5.372       0.000

kpt = [-0.455, -0.364, 0.000], weight = 0.008:
  Band      eig [eV]   occ [0-1]
     0       -65.921       1.000
   ...
    19        -5.279       1.000
    20        -5.173       1.000
    21        -5.006       1.000
    22        -4.896       1.000
    23        -4.659       1.000
    24        -1.950       0.999
    25        -1.813       0.998
    26        -1.686       0.991
    27        -0.716       0.007
    28        -0.526       0.001
    29         0.363       0.000
    30         0.389       0.000
    31         0.640       0.000
    32         0.792       0.000
    33         0.943       0.000
    34         2.727       0.000
   ...
    41         5.510       0.000

kpt = [-0.455, -0.273, 0.000], weight = 0.008:
  Band      eig [eV]   occ [0-1]
     0       -65.921       1.000
   ...
    19        -5.304       1.000
    20        -5.200       1.000
    21        -4.825       1.000
    22        -4.747       1.000
    23        -4.554       1.000
    24        -1.929       0.999
    25        -1.796       0.997
    26        -1.754       0.996
    27        -0.801       0.016
    28        -0.520       0.001
    29         0.385       0.000
    30         0.452       0.000
    31         0.531       0.000
    32         0.651       0.000
    33         0.913       0.000
    34         2.636       0.000
   ...
    41         5.096       0.000
(only showing first 3 out of 121 k-points)

Gap: 0.796 eV
Transition (v -> c):
  (s=0, k=60, n=26, [0.00, 0.00, 0.00]) -> (s=0, k=113, n=27, [0.45, -0.18, 0.00])
# Writing to gsq-10.gpw (mode='')

---

timing:  # [seconds]
  Total: 440.225  # ━━━━━━━━━━━━━━━━━━━━━━━━━━━━━━━━━━━━━━━━━━━━━━━━━━━━━━━━━
  Init:   12.034  # ━╸
  SCF:   426.908  # ━━━━━━━━━━━━━━━━━━━━━━━━━━━━━━━━━━━━━━━━━━━━━━━━━━━━━━━╸

Max RSS: 610.891  # MiB
