#  __  _  _
# | _ |_)|_||  |
# |__||  | ||/\| - 24.1.0

User:   s194099@n-62-29-15
Date:   Wed Apr 17 14:22:59 2024
Arch:   x86_64
Pid:    22110
CWD:    /zhome/84/5/147090/10302_NM/VBr2
Python: 3.8.5
gpaw:   /zhome/84/5/147090/venv1/gpaw/gpaw (10808453a8)
_gpaw:  /zhome/84/5/147090/venv1/gpaw/
        _gpaw.cpython-38-x86_64-linux-gnu.so (10808453a8)
ase:    /zhome/84/5/147090/venv1/ase/ase (version 3.23.0b1-c36115a2db)
numpy:  /zhome/84/5/147090/venv1/lib/python3.8/site-packages/numpy (version 1.24.4)
scipy:  /zhome/84/5/147090/venv1/lib/python3.8/site-packages/scipy (version 1.10.1)
libxc:  4.3.4
units:  Angstrom and eV
cores: 12
OpenMP: False
OMP_NUM_THREADS: 1

---
input parameters:
  kpts: 
    density: 6.0
    gamma: True
  magmoms: [[1, 0, 0], [0, 0, 0], [0, 0, 0]]
  mixer: 
    backend: 'pulay'
    beta: 0.05
    method: 'sum'
    nmaxold: 5
    weight: 100
  mode: 
    name: 'pw'
    ecut: 600
    qspiral: array([0.3, 0. , 0. ])
  parallel: 
    kpt: None
    domain: 1
    band: 1
    order: 'kdb'
    stridebands: False
    augment_grids: False
    sl_auto: False
    sl_default: None
    sl_diagonalize: None
    sl_inverse_cholesky: None
    sl_lcao: None
    sl_lrtddft: None
    use_elpa: False
    elpasolver: '2stage'
    buffer_size: None
    gpu: False
  symmetry: 
    point_group: False
    time_reversal: False
  xc: 
    name: 'LDA'

#                        
#                        
#                        
#                        
#                        
#              Br        
#                        
#        V               
#          Br            
#                        
#                        
#                        
#                        
#                        

atoms: [  # symbols, positions [Ang] and initial magnetic moments
  [  V, [   0.000000,    0.000000,    7.513573], [ 1.000,  0.000,  0.000]], # 0
  [ Br, [   1.984831,    1.145943,    9.027147], [ 0.000,  0.000,  0.000]], # 1
  [ Br, [  -0.000000,    2.291886,    6.000000], [ 0.000,  0.000,  0.000]]] # 2

cell: [  # Ang
#     x            y            z
  [   3.969662,    0.000000,    0.000000],
  [  -1.984831,    3.437828,    0.000000],
  [   0.000000,   -0.000000,   15.027147]]

periodic: [True      , True      , False     ]
lengths:  [  3.969662,   3.969662,  15.027147]  # Ang
angles:   [ 90.000000,  90.000000, 120.000000]

symmetry:
  number of symmetries: 1
  rotations: [
    [[ 1,  0,  0], [ 0,  1,  0], [ 0,  0,  1]]]

bz sampling:
  number of bz points: 121
  number of ibz points: 121
  monkhorst-pack size: [11, 11, 1]
  monkhorst-pack shift: [0, 0, 0]
  points and weights: [
    [[ -0.45454545,  -0.45454545,   0.00000000], 0.00826446],  # 0
    [[ -0.45454545,  -0.36363636,   0.00000000], 0.00826446],  # 1
    [[ -0.45454545,  -0.27272727,   0.00000000], 0.00826446],  # 2
    [[ -0.45454545,  -0.18181818,   0.00000000], 0.00826446],  # 3
    [[ -0.45454545,  -0.09090909,   0.00000000], 0.00826446],  # 4
    [[ -0.45454545,   0.00000000,   0.00000000], 0.00826446],  # 5
    [[ -0.45454545,   0.09090909,   0.00000000], 0.00826446],  # 6
    [[ -0.45454545,   0.18181818,   0.00000000], 0.00826446],  # 7
    [[ -0.45454545,   0.27272727,   0.00000000], 0.00826446],  # 8
    [[ -0.45454545,   0.36363636,   0.00000000], 0.00826446],  # 9
    # ...
    [[  0.45454545,   0.45454545,   0.00000000], 0.00826446]]  # 120

plane wave coefficients: 6874
cutoff: 600.0 eV

spin-components: 4  # (non-collinear spins)
bands: 42
valence electrons: 27.0
spin-degeneracy: 1
dtype: complex128

memory:
    wave functions: 1_113_974_400  # bytes  (92_831_200 per core)

parallelization:
    kpt:    12
    domain: 1
    band:   1

density:
  components: 4
  grid points: [24 24 90]
  charge: 0.0  # |e|

potential:
  grid points: [24 24 90]

species:
  V:
    name: Vanadium
    id: 7939ce69e6bb5930668dfcf9bb1979c3
    Z: 23.0
    valence: 13
    core: 10
    charge: 0.0
    file: /zhome/86/d/1666/PAW/gpaw-setups-0.9.20000/V.LDA.gz
    compensation charges: {type: gauss,
                           rc: 0.37,
                           lmax: 2}
    cutoffs: {filter: 2.14,
              core: 0.96}
    valence states:
      #              energy  rcut
      - 3s(2.00)   -69.819   1.254
      - 4s(2.00)    -4.846   1.254
      - 3p(6.00)   -43.961   1.281
      - 4p(0.00)    -1.526   1.281
      - 3d(3.00)    -5.381   1.169
      -  d          21.830   1.169
  
    # Using partial waves for V as LCAO basis

  Br:
    name: Bromine
    id: 10a25bbcb3273ec7d8d7f6fc01d2618d
    Z: 35.0
    valence: 7
    core: 28
    charge: 0.0
    file: /zhome/86/d/1666/PAW/gpaw-setups-0.9.20000/Br.LDA.gz
    compensation charges: {type: gauss,
                           rc: 0.35,
                           lmax: 2}
    cutoffs: {filter: 1.98,
              core: 2.38}
    valence states:
      #              energy  rcut
      - 4s(2.00)   -20.306   1.111
      - 4p(5.00)    -8.003   1.111
      -  s           6.906   1.111
      -  p          19.208   1.111
      -  d           0.000   1.111
  
    # Using partial waves for Br as LCAO basis

Reference energy: -167392.690611  # eV

eigensolver:
  name: 'Davidson'
  niter: 2
  converge_bands: 'occupied'
Density mixing:
  Method: sum
  Backend: pulay
  Linear mixing parameter: 0.05
  old densities: 5
  Damping of long wavelength oscillations: 100
occupation numbers:
  Fermi-Dirac:
    width: 0.1000  # eV
  

poisson solver:
  ecut: 4800.0  # eV

xc functional:
  name: None

convergence criteria:
- Maximum [total energy] change in last 3 cyles: 0.0005 eV / valence electron
- Maximum integral of absolute [dens]ity change: 0.0001 electrons / valence electron
- Maximum integral of absolute [eigenst]ate change: 4e-08 eV^2 / valence electron
maximum number of iterations: 333

#      iter     time        total  log10-change:
#                          energy   eigst   dens
# iter:   1 14:23:28   -14.425757                  +1.0,+0.0,+0.0
# iter:   2 14:23:45   -14.836013   -0.32  -1.44   +1.6,-0.0,-0.0
# iter:   3 14:24:02   -14.924670   -1.09  -1.47   +1.9,-0.0,-0.0
# iter:   4 14:24:19   -15.092537   -1.56  -1.55   +2.2,-0.0,-0.0
# iter:   5 14:24:37   -15.310395   -2.10  -1.68   +2.7,-0.0,-0.0
# iter:   6 14:24:54   -15.306229   -2.14  -2.07   +2.8,-0.0,+0.0
# iter:   7 14:25:11   -15.302052c  -2.93  -2.32   +2.8,-0.0,+0.0
# iter:   8 14:25:28   -15.301034c  -3.48  -2.72   +2.8,-0.0,+0.0
# iter:   9 14:25:46   -15.303291c  -3.37  -2.79   +2.9,-0.0,+0.0
# iter:  10 14:26:03   -15.302219c  -3.90  -2.67   +2.9,-0.0,+0.0
# iter:  11 14:26:20   -15.302206c  -4.49  -3.51   +2.9,-0.0,-0.0
# iter:  12 14:26:37   -15.302207c  -4.83  -3.59   +2.9,-0.0,+0.0
# iter:  13 14:26:55   -15.302202c  -5.05  -3.65   +2.9,-0.0,+0.0
# iter:  14 14:27:12   -15.302201c  -5.41  -4.20c  +2.9,-0.0,-0.0
# iter:  15 14:27:29   -15.302199c  -5.69  -4.24c  +2.9,-0.0,-0.0
# iter:  16 14:27:46   -15.302206c  -5.88  -4.24c  +2.9,-0.0,-0.0
# iter:  17 14:28:03   -15.302208c  -6.06  -4.07c  +2.9,-0.0,-0.0
# iter:  18 14:28:20   -15.302208c  -6.42  -4.54c  +2.9,-0.0,-0.0
# iter:  19 14:28:38   -15.302208c  -6.54  -4.66c  +2.9,-0.0,-0.0
# iter:  20 14:28:55   -15.302208c  -6.90  -4.92c  +2.9,-0.0,-0.0
# iter:  21 14:29:12   -15.302208c  -7.18  -5.08c  +2.9,-0.0,-0.0
# iter:  22 14:29:29   -15.302208c  -7.40c -5.22c  +2.9,-0.0,-0.0
scf_steps: 22
energies:  # eV
  coulomb:           0.144824
  zero:              0.054088
  xc:              -14.677135
  external:          0.000000
  kinetic:          -0.817980
  spinorbit:         0.000000
  entropy:          -0.012009
  total:           -15.308213
  extrapolated:    -15.302208

dipole moment: [-4.907686, -8.879795, -9.318244]  # |e|*Ang

total magnetic moment: [2.876058, -0.001338, -0.000000]

local magnetic moments: [
  [ 2.623703,  0.000000, -0.000000],  # V  0
  [-0.006727,  0.026537,  0.000000],  # Br 1
  [-0.023160,  0.014598,  0.000000]]  # Br 2


Fermi level: -1.166 eV

kpt = [-0.455, -0.455, 0.000], weight = 0.008:
  Band      eig [eV]   occ [0-1]
     0       -65.895       1.000
   ...
    19        -5.286       1.000
    20        -5.165       1.000
    21        -5.075       1.000
    22        -4.963       1.000
    23        -4.868       1.000
    24        -2.058       1.000
    25        -1.687       0.995
    26        -1.645       0.992
    27        -0.592       0.003
    28        -0.482       0.001
    29         0.073       0.000
    30         0.600       0.000
    31         0.705       0.000
    32         1.001       0.000
    33         1.040       0.000
    34         2.527       0.000
   ...
    41         5.407       0.000

kpt = [-0.455, -0.364, 0.000], weight = 0.008:
  Band      eig [eV]   occ [0-1]
     0       -65.895       1.000
   ...
    19        -5.259       1.000
    20        -5.098       1.000
    21        -5.054       1.000
    22        -4.951       1.000
    23        -4.778       1.000
    24        -2.008       1.000
    25        -1.695       0.995
    26        -1.676       0.994
    27        -0.607       0.004
    28        -0.534       0.002
    29         0.230       0.000
    30         0.624       0.000
    31         0.660       0.000
    32         0.919       0.000
    33         0.974       0.000
    34         2.591       0.000
   ...
    41         5.634       0.000

kpt = [-0.455, -0.273, 0.000], weight = 0.008:
  Band      eig [eV]   occ [0-1]
     0       -65.895       1.000
   ...
    19        -5.348       1.000
    20        -5.184       1.000
    21        -5.042       1.000
    22        -4.949       1.000
    23        -4.677       1.000
    24        -1.885       0.999
    25        -1.761       0.997
    26        -1.682       0.994
    27        -0.686       0.008
    28        -0.544       0.002
    29         0.422       0.000
    30         0.477       0.000
    31         0.632       0.000
    32         0.826       0.000
    33         0.945       0.000
    34         2.889       0.000
   ...
    41         5.605       0.000
(only showing first 3 out of 121 k-points)

Gap: 0.825 eV
Transition (v -> c):
  (s=0, k=5, n=26, [-0.45, 0.00, 0.00]) -> (s=0, k=62, n=27, [0.00, 0.18, 0.00])
# Writing to gsq-06.gpw (mode='')

---

timing:  # [seconds]
  Total: 390.685  # ━━━━━━━━━━━━━━━━━━━━━━━━━━━━━━━━━━━━━━━━━━━━━━━━━━━━━━━━━
  Init:   12.001  # ━━
  SCF:   377.415  # ━━━━━━━━━━━━━━━━━━━━━━━━━━━━━━━━━━━━━━━━━━━━━━━━━━━━━━━

Max RSS: 610.891  # MiB
