#  __  _  _
# | _ |_)|_||  |
# |__||  | ||/\| - 24.1.0

User:   s194099@n-62-29-15
Date:   Wed Apr 17 14:57:35 2024
Arch:   x86_64
Pid:    22110
CWD:    /zhome/84/5/147090/10302_NM/VBr2
Python: 3.8.5
gpaw:   /zhome/84/5/147090/venv1/gpaw/gpaw (10808453a8)
_gpaw:  /zhome/84/5/147090/venv1/gpaw/
        _gpaw.cpython-38-x86_64-linux-gnu.so (10808453a8)
ase:    /zhome/84/5/147090/venv1/ase/ase (version 3.23.0b1-c36115a2db)
numpy:  /zhome/84/5/147090/venv1/lib/python3.8/site-packages/numpy (version 1.24.4)
scipy:  /zhome/84/5/147090/venv1/lib/python3.8/site-packages/scipy (version 1.10.1)
libxc:  4.3.4
units:  Angstrom and eV
cores: 12
OpenMP: False
OMP_NUM_THREADS: 1

---
input parameters:
  kpts: 
    density: 6.0
    gamma: True
  magmoms: [[1, 0, 0], [0, 0, 0], [0, 0, 0]]
  mixer: 
    backend: 'pulay'
    beta: 0.05
    method: 'sum'
    nmaxold: 5
    weight: 100
  mode: 
    name: 'pw'
    ecut: 600
    qspiral: array([0.47222222, 0.05555556, 0.        ])
  parallel: 
    kpt: None
    domain: 1
    band: 1
    order: 'kdb'
    stridebands: False
    augment_grids: False
    sl_auto: False
    sl_default: None
    sl_diagonalize: None
    sl_inverse_cholesky: None
    sl_lcao: None
    sl_lrtddft: None
    use_elpa: False
    elpasolver: '2stage'
    buffer_size: None
    gpu: False
  symmetry: 
    point_group: False
    time_reversal: False
  xc: 
    name: 'LDA'

#                        
#                        
#                        
#                        
#                        
#              Br        
#                        
#        V               
#          Br            
#                        
#                        
#                        
#                        
#                        

atoms: [  # symbols, positions [Ang] and initial magnetic moments
  [  V, [   0.000000,    0.000000,    7.513573], [ 1.000,  0.000,  0.000]], # 0
  [ Br, [   1.984831,    1.145943,    9.027147], [ 0.000,  0.000,  0.000]], # 1
  [ Br, [  -0.000000,    2.291886,    6.000000], [ 0.000,  0.000,  0.000]]] # 2

cell: [  # Ang
#     x            y            z
  [   3.969662,    0.000000,    0.000000],
  [  -1.984831,    3.437828,    0.000000],
  [   0.000000,   -0.000000,   15.027147]]

periodic: [True      , True      , False     ]
lengths:  [  3.969662,   3.969662,  15.027147]  # Ang
angles:   [ 90.000000,  90.000000, 120.000000]

symmetry:
  number of symmetries: 1
  rotations: [
    [[ 1,  0,  0], [ 0,  1,  0], [ 0,  0,  1]]]

bz sampling:
  number of bz points: 121
  number of ibz points: 121
  monkhorst-pack size: [11, 11, 1]
  monkhorst-pack shift: [0, 0, 0]
  points and weights: [
    [[ -0.45454545,  -0.45454545,   0.00000000], 0.00826446],  # 0
    [[ -0.45454545,  -0.36363636,   0.00000000], 0.00826446],  # 1
    [[ -0.45454545,  -0.27272727,   0.00000000], 0.00826446],  # 2
    [[ -0.45454545,  -0.18181818,   0.00000000], 0.00826446],  # 3
    [[ -0.45454545,  -0.09090909,   0.00000000], 0.00826446],  # 4
    [[ -0.45454545,   0.00000000,   0.00000000], 0.00826446],  # 5
    [[ -0.45454545,   0.09090909,   0.00000000], 0.00826446],  # 6
    [[ -0.45454545,   0.18181818,   0.00000000], 0.00826446],  # 7
    [[ -0.45454545,   0.27272727,   0.00000000], 0.00826446],  # 8
    [[ -0.45454545,   0.36363636,   0.00000000], 0.00826446],  # 9
    # ...
    [[  0.45454545,   0.45454545,   0.00000000], 0.00826446]]  # 120

plane wave coefficients: 6874
cutoff: 600.0 eV

spin-components: 4  # (non-collinear spins)
bands: 42
valence electrons: 27.0
spin-degeneracy: 1
dtype: complex128

memory:
    wave functions: 1_113_974_400  # bytes  (92_831_200 per core)

parallelization:
    kpt:    12
    domain: 1
    band:   1

density:
  components: 4
  grid points: [24 24 90]
  charge: 0.0  # |e|

potential:
  grid points: [24 24 90]

species:
  V:
    name: Vanadium
    id: 7939ce69e6bb5930668dfcf9bb1979c3
    Z: 23.0
    valence: 13
    core: 10
    charge: 0.0
    file: /zhome/86/d/1666/PAW/gpaw-setups-0.9.20000/V.LDA.gz
    compensation charges: {type: gauss,
                           rc: 0.37,
                           lmax: 2}
    cutoffs: {filter: 2.14,
              core: 0.96}
    valence states:
      #              energy  rcut
      - 3s(2.00)   -69.819   1.254
      - 4s(2.00)    -4.846   1.254
      - 3p(6.00)   -43.961   1.281
      - 4p(0.00)    -1.526   1.281
      - 3d(3.00)    -5.381   1.169
      -  d          21.830   1.169
  
    # Using partial waves for V as LCAO basis

  Br:
    name: Bromine
    id: 10a25bbcb3273ec7d8d7f6fc01d2618d
    Z: 35.0
    valence: 7
    core: 28
    charge: 0.0
    file: /zhome/86/d/1666/PAW/gpaw-setups-0.9.20000/Br.LDA.gz
    compensation charges: {type: gauss,
                           rc: 0.35,
                           lmax: 2}
    cutoffs: {filter: 1.98,
              core: 2.38}
    valence states:
      #              energy  rcut
      - 4s(2.00)   -20.306   1.111
      - 4p(5.00)    -8.003   1.111
      -  s           6.906   1.111
      -  p          19.208   1.111
      -  d           0.000   1.111
  
    # Using partial waves for Br as LCAO basis

Reference energy: -167392.690611  # eV

eigensolver:
  name: 'Davidson'
  niter: 2
  converge_bands: 'occupied'
Density mixing:
  Method: sum
  Backend: pulay
  Linear mixing parameter: 0.05
  old densities: 5
  Damping of long wavelength oscillations: 100
occupation numbers:
  Fermi-Dirac:
    width: 0.1000  # eV
  

poisson solver:
  ecut: 4800.0  # eV

xc functional:
  name: None

convergence criteria:
- Maximum [total energy] change in last 3 cyles: 0.0005 eV / valence electron
- Maximum integral of absolute [dens]ity change: 0.0001 electrons / valence electron
- Maximum integral of absolute [eigenst]ate change: 4e-08 eV^2 / valence electron
maximum number of iterations: 333

#      iter     time        total  log10-change:
#                          energy   eigst   dens
# iter:   1 14:58:04   -14.060328                  +1.0,+0.0,+0.0
# iter:   2 14:58:21   -14.793863   +0.06  -1.45   +1.5,-0.0,-0.0
# iter:   3 14:58:38   -14.919335   -0.74  -1.47   +1.7,-0.0,-0.0
# iter:   4 14:58:55   -15.097775   -1.35  -1.54   +2.0,-0.0,-0.0
# iter:   5 14:59:12   -15.307546   -1.90  -1.68   +2.5,-0.0,+0.0
# iter:   6 14:59:29   -15.302702   -2.09  -2.03   +2.6,-0.0,+0.0
# iter:   7 14:59:46   -15.306567c  -2.47  -2.31   +2.7,-0.0,+0.0
# iter:   8 15:00:03   -15.302913c  -2.99  -2.56   +2.7,-0.0,+0.0
# iter:   9 15:00:20   -15.304118c  -3.53  -2.73   +2.7,-0.0,-0.0
# iter:  10 15:00:37   -15.304003c  -4.03  -3.33   +2.7,-0.0,-0.0
# iter:  11 15:00:55   -15.304054c  -4.32  -3.59   +2.7,-0.0,-0.0
# iter:  12 15:01:12   -15.304073c  -4.59  -3.63   +2.7,-0.0,+0.0
# iter:  13 15:01:29   -15.304095c  -4.81  -3.67   +2.7,-0.0,+0.0
# iter:  14 15:01:46   -15.304097c  -5.10  -3.81   +2.7,-0.0,-0.0
# iter:  15 15:02:03   -15.304089c  -5.20  -3.91   +2.7,-0.0,-0.0
# iter:  16 15:02:20   -15.304085c  -5.55  -4.33c  +2.7,-0.0,-0.0
# iter:  17 15:02:37   -15.304086c  -5.81  -4.45c  +2.7,-0.0,-0.0
# iter:  18 15:02:54   -15.304087c  -6.03  -4.46c  +2.7,-0.0,-0.0
# iter:  19 15:03:11   -15.304084c  -6.28  -4.62c  +2.7,-0.0,-0.0
# iter:  20 15:03:28   -15.304083c  -6.49  -4.76c  +2.7,-0.0,-0.0
# iter:  21 15:03:45   -15.304083c  -6.73  -4.79c  +2.7,-0.0,+0.0
# iter:  22 15:04:02   -15.304084c  -6.95  -5.07c  +2.7,-0.0,+0.0
# iter:  23 15:04:19   -15.304083c  -7.16  -5.09c  +2.7,-0.0,+0.0
# iter:  24 15:04:36   -15.304083c  -7.39  -5.19c  +2.7,-0.0,+0.0
# iter:  25 15:04:53   -15.304082c  -7.59c -5.25c  +2.7,-0.0,+0.0
scf_steps: 25
energies:  # eV
  coulomb:           0.271068
  zero:              0.054200
  xc:              -14.622139
  external:          0.000000
  kinetic:          -1.001084
  spinorbit:         0.000000
  entropy:          -0.012257
  total:           -15.310211
  extrapolated:    -15.304082

dipole moment: [-4.623346, -8.548228, -8.440913]  # |e|*Ang

total magnetic moment: [2.741944, -0.000064, 0.000000]

local magnetic moments: [
  [ 2.602500,  0.000000,  0.000000],  # V  0
  [ 0.012081,  0.000011, -0.000000],  # Br 1
  [-0.011896,  0.002109, -0.000000]]  # Br 2


Fermi level: -1.210 eV

kpt = [-0.455, -0.455, 0.000], weight = 0.008:
  Band      eig [eV]   occ [0-1]
     0       -65.922       1.000
   ...
    19        -5.321       1.000
    20        -5.253       1.000
    21        -5.147       1.000
    22        -5.016       1.000
    23        -4.837       1.000
    24        -1.932       0.999
    25        -1.757       0.996
    26        -1.676       0.991
    27        -0.669       0.004
    28        -0.515       0.001
    29         0.336       0.000
    30         0.406       0.000
    31         0.615       0.000
    32         0.921       0.000
    33         0.972       0.000
    34         2.867       0.000
   ...
    41         5.549       0.000

kpt = [-0.455, -0.364, 0.000], weight = 0.008:
  Band      eig [eV]   occ [0-1]
     0       -65.922       1.000
   ...
    19        -5.290       1.000
    20        -5.208       1.000
    21        -5.005       1.000
    22        -4.934       1.000
    23        -4.712       1.000
    24        -1.943       0.999
    25        -1.797       0.997
    26        -1.695       0.992
    27        -0.707       0.006
    28        -0.528       0.001
    29         0.372       0.000
    30         0.415       0.000
    31         0.631       0.000
    32         0.801       0.000
    33         0.944       0.000
    34         2.730       0.000
   ...
    41         5.662       0.000

kpt = [-0.455, -0.273, 0.000], weight = 0.008:
  Band      eig [eV]   occ [0-1]
     0       -65.922       1.000
   ...
    19        -5.291       1.000
    20        -5.181       1.000
    21        -4.818       1.000
    22        -4.766       1.000
    23        -4.600       1.000
    24        -1.943       0.999
    25        -1.777       0.997
    26        -1.763       0.996
    27        -0.790       0.015
    28        -0.521       0.001
    29         0.375       0.000
    30         0.470       0.000
    31         0.528       0.000
    32         0.667       0.000
    33         0.915       0.000
    34         2.711       0.000
   ...
    41         5.188       0.000
(only showing first 3 out of 121 k-points)

Gap: 0.801 eV
Transition (v -> c):
  (s=0, k=60, n=26, [0.00, 0.00, 0.00]) -> (s=0, k=63, n=27, [0.00, 0.27, 0.00])
# Writing to gsq-11.gpw (mode='')

---

timing:  # [seconds]
  Total: 438.061  # ━━━━━━━━━━━━━━━━━━━━━━━━━━━━━━━━━━━━━━━━━━━━━━━━━━━━━━━━━
  Init:   12.107  # ━╸
  SCF:   425.598  # ━━━━━━━━━━━━━━━━━━━━━━━━━━━━━━━━━━━━━━━━━━━━━━━━━━━━━━━╸

Max RSS: 610.891  # MiB
