#  __  _  _
# | _ |_)|_||  |
# |__||  | ||/\| - 24.1.0

User:   s194113@n-62-28-31
Date:   Thu Apr 18 13:24:03 2024
Arch:   x86_64
Pid:    12758
CWD:    /zhome/87/8/147075/10302/10302_NM/VBr2
Python: 3.8.5
gpaw:   /zhome/87/8/147075/venv-name/gpaw/gpaw (10808453a8)
_gpaw:  /zhome/87/8/147075/venv-name/gpaw/
        _gpaw.cpython-38-x86_64-linux-gnu.so (10808453a8)
ase:    /zhome/87/8/147075/venv-name/ase/ase (version 3.23.0b1-c36115a2db)
numpy:  /zhome/87/8/147075/venv-name/lib/python3.8/site-packages/numpy (version 1.24.4)
scipy:  /zhome/87/8/147075/venv-name/lib/python3.8/site-packages/scipy (version 1.10.1)
libxc:  4.3.4
units:  Angstrom and eV
cores: 12
OpenMP: False
OMP_NUM_THREADS: 1

---
input parameters:
  kpts: 
    density: 6.0
    gamma: True
  magmoms: [[1, 0, 0], [0, 0, 0], [0, 0, 0]]
  mixer: 
    backend: 'pulay'
    beta: 0.05
    method: 'sum'
    nmaxold: 5
    weight: 100
  mode: 
    name: 'pw'
    ecut: 600
    qspiral: array([0.35, 0.  , 0.  ])
  parallel: 
    kpt: None
    domain: 1
    band: 1
    order: 'kdb'
    stridebands: False
    augment_grids: False
    sl_auto: False
    sl_default: None
    sl_diagonalize: None
    sl_inverse_cholesky: None
    sl_lcao: None
    sl_lrtddft: None
    use_elpa: False
    elpasolver: '2stage'
    buffer_size: None
    gpu: False
  symmetry: 
    point_group: False
    time_reversal: False
  xc: 
    name: 'LDA'

#                        
#                        
#                        
#                        
#                        
#              Br        
#                        
#        V               
#          Br            
#                        
#                        
#                        
#                        
#                        

atoms: [  # symbols, positions [Ang] and initial magnetic moments
  [  V, [   0.000000,    0.000000,    7.513573], [ 1.000,  0.000,  0.000]], # 0
  [ Br, [   1.920000,    1.108513,    9.027147], [ 0.000,  0.000,  0.000]], # 1
  [ Br, [  -0.000000,    2.217025,    6.000000], [ 0.000,  0.000,  0.000]]] # 2

cell: [  # Ang
#     x            y            z
  [   3.840000,    0.000000,    0.000000],
  [  -1.920000,    3.325538,    0.000000],
  [   0.000000,   -0.000000,   15.027147]]

periodic: [True      , True      , False     ]
lengths:  [  3.840000,   3.840000,  15.027147]  # Ang
angles:   [ 90.000000,  90.000000, 120.000000]

symmetry:
  number of symmetries: 1
  rotations: [
    [[ 1,  0,  0], [ 0,  1,  0], [ 0,  0,  1]]]

bz sampling:
  number of bz points: 144
  number of ibz points: 144
  monkhorst-pack size: [12, 12, 1]
  monkhorst-pack shift: [0.041666666666666664, 0.041666666666666664, 0.0]
  points and weights: [
    [[ -0.41666667,  -0.41666667,   0.00000000], 0.00694444],  # 0
    [[ -0.41666667,  -0.33333333,   0.00000000], 0.00694444],  # 1
    [[ -0.41666667,  -0.25000000,   0.00000000], 0.00694444],  # 2
    [[ -0.41666667,  -0.16666667,   0.00000000], 0.00694444],  # 3
    [[ -0.41666667,  -0.08333333,   0.00000000], 0.00694444],  # 4
    [[ -0.41666667,  -0.00000000,   0.00000000], 0.00694444],  # 5
    [[ -0.41666667,   0.08333333,   0.00000000], 0.00694444],  # 6
    [[ -0.41666667,   0.16666667,   0.00000000], 0.00694444],  # 7
    [[ -0.41666667,   0.25000000,   0.00000000], 0.00694444],  # 8
    [[ -0.41666667,   0.33333333,   0.00000000], 0.00694444],  # 9
    # ...
    [[  0.50000000,   0.50000000,   0.00000000], 0.00694444]]  # 143

plane wave coefficients: 6439
cutoff: 600.0 eV

spin-components: 4  # (non-collinear spins)
bands: 42
valence electrons: 27.0
spin-degeneracy: 1
dtype: complex128

memory:
    wave functions: 1_238_243_328  # bytes  (103_186_944 per core)

parallelization:
    kpt:    12
    domain: 1
    band:   1

density:
  components: 4
  grid points: [24 24 90]
  charge: 0.0  # |e|

potential:
  grid points: [24 24 90]

species:
  V:
    name: Vanadium
    id: 7939ce69e6bb5930668dfcf9bb1979c3
    Z: 23.0
    valence: 13
    core: 10
    charge: 0.0
    file: /zhome/86/d/1666/PAW/gpaw-setups-0.9.20000/V.LDA.gz
    compensation charges: {type: gauss,
                           rc: 0.37,
                           lmax: 2}
    cutoffs: {filter: 2.14,
              core: 0.96}
    valence states:
      #              energy  rcut
      - 3s(2.00)   -69.819   1.254
      - 4s(2.00)    -4.846   1.254
      - 3p(6.00)   -43.961   1.281
      - 4p(0.00)    -1.526   1.281
      - 3d(3.00)    -5.381   1.169
      -  d          21.830   1.169
  
    # Using partial waves for V as LCAO basis

  Br:
    name: Bromine
    id: 10a25bbcb3273ec7d8d7f6fc01d2618d
    Z: 35.0
    valence: 7
    core: 28
    charge: 0.0
    file: /zhome/86/d/1666/PAW/gpaw-setups-0.9.20000/Br.LDA.gz
    compensation charges: {type: gauss,
                           rc: 0.35,
                           lmax: 2}
    cutoffs: {filter: 1.98,
              core: 2.38}
    valence states:
      #              energy  rcut
      - 4s(2.00)   -20.306   1.111
      - 4p(5.00)    -8.003   1.111
      -  s           6.906   1.111
      -  p          19.208   1.111
      -  d           0.000   1.111
  
    # Using partial waves for Br as LCAO basis

Reference energy: -167392.690611  # eV

eigensolver:
  name: 'Davidson'
  niter: 2
  converge_bands: 'occupied'
Density mixing:
  Method: sum
  Backend: pulay
  Linear mixing parameter: 0.05
  old densities: 5
  Damping of long wavelength oscillations: 100
occupation numbers:
  Fermi-Dirac:
    width: 0.1000  # eV
  

poisson solver:
  ecut: 4800.0  # eV

xc functional:
  name: None

convergence criteria:
- Maximum [total energy] change in last 3 cyles: 0.0005 eV / valence electron
- Maximum integral of absolute [dens]ity change: 0.0001 electrons / valence electron
- Maximum integral of absolute [eigenst]ate change: 4e-08 eV^2 / valence electron
maximum number of iterations: 333

#      iter     time        total  log10-change:
#                          energy   eigst   dens
# iter:   1 13:24:37   -14.752783                  +1.0,+0.0,+0.0
# iter:   2 13:24:57   -15.162650   -0.17  -1.42   +1.4,-0.0,+0.0
# iter:   3 13:25:18   -15.219478   -0.97  -1.46   +1.8,-0.0,+0.0
# iter:   4 13:25:38   -15.343095   -1.48  -1.56   +2.0,-0.0,+0.0
# iter:   5 13:25:58   -15.569300   -2.01  -1.68   +2.6,-0.0,+0.0
# iter:   6 13:26:19   -15.571030   -2.29  -2.05   +2.6,-0.0,+0.0
# iter:   7 13:26:39   -15.573494c  -2.76  -2.24   +2.7,-0.0,+0.0
# iter:   8 13:26:59   -15.570346c  -3.23  -2.55   +2.7,-0.0,+0.0
# iter:   9 13:27:20   -15.572640c  -3.72  -2.72   +2.8,-0.0,+0.0
# iter:  10 13:27:40   -15.572878c  -3.99  -2.90   +2.8,-0.0,+0.0
# iter:  11 13:28:00   -15.572897c  -4.51  -3.62   +2.8,-0.0,+0.0
# iter:  12 13:28:21   -15.572900c  -4.87  -3.63   +2.8,-0.0,+0.0
# iter:  13 13:28:41   -15.572927c  -5.14  -3.64   +2.8,-0.0,-0.0
# iter:  14 13:29:01   -15.572956c  -5.31  -3.85   +2.8,-0.0,-0.0
# iter:  15 13:29:21   -15.572964c  -5.62  -3.98   +2.8,-0.0,-0.0
# iter:  16 13:29:42   -15.572959c  -5.93  -4.16c  +2.8,-0.0,-0.0
# iter:  17 13:30:02   -15.572972c  -6.15  -4.09c  +2.8,-0.0,-0.0
# iter:  18 13:30:22   -15.572975c  -6.25  -4.23c  +2.8,-0.0,-0.0
# iter:  19 13:30:42   -15.572974c  -6.50  -4.22c  +2.8,-0.0,-0.0
# iter:  20 13:31:02   -15.572974c  -6.90  -4.61c  +2.8,-0.0,-0.0
# iter:  21 13:31:23   -15.572974c  -7.17  -4.68c  +2.8,-0.0,+0.0
# iter:  22 13:31:43   -15.572973c  -7.29  -4.70c  +2.8,-0.0,-0.0
# iter:  23 13:32:03   -15.572973c  -7.58c -5.10c  +2.8,-0.0,-0.0
scf_steps: 23
energies:  # eV
  coulomb:          -3.208066
  zero:              0.047016
  xc:              -15.787445
  external:          0.000000
  kinetic:           3.380209
  spinorbit:         0.000000
  entropy:          -0.009374
  total:           -15.577660
  extrapolated:    -15.572973

dipole moment: [-4.657346, -8.497358, -8.949483]  # |e|*Ang

total magnetic moment: [2.790234, -0.001261, -0.000000]

local magnetic moments: [
  [ 2.571029, -0.000000, -0.000000],  # V  0
  [ 0.000019,  0.018136, -0.000000],  # Br 1
  [-0.014684,  0.010645, -0.000000]]  # Br 2


Fermi level: -0.739 eV

kpt = [-0.417, -0.417, 0.000], weight = 0.007:
  Band      eig [eV]   occ [0-1]
     0       -65.487       1.000
   ...
    19        -5.112       1.000
    20        -4.972       1.000
    21        -4.884       1.000
    22        -4.760       1.000
    23        -4.737       1.000
    24        -1.718       1.000
    25        -1.348       0.998
    26        -1.225       0.992
    27        -0.112       0.002
    28        -0.003       0.001
    29         0.536       0.000
    30         0.899       0.000
    31         1.097       0.000
    32         1.406       0.000
    33         1.476       0.000
    34         2.948       0.000
   ...
    41         6.216       0.000

kpt = [-0.417, -0.333, 0.000], weight = 0.007:
  Band      eig [eV]   occ [0-1]
     0       -65.487       1.000
   ...
    19        -5.102       1.000
    20        -5.073       1.000
    21        -4.870       1.000
    22        -4.774       1.000
    23        -4.622       1.000
    24        -1.612       1.000
    25        -1.355       0.998
    26        -1.287       0.996
    27        -0.177       0.004
    28        -0.021       0.001
    29         0.691       0.000
    30         0.917       0.000
    31         0.969       0.000
    32         1.304       0.000
    33         1.419       0.000
    34         3.194       0.000
   ...
    41         6.110       0.000

kpt = [-0.417, -0.250, 0.000], weight = 0.007:
  Band      eig [eV]   occ [0-1]
     0       -65.487       1.000
   ...
    19        -5.225       1.000
    20        -5.135       1.000
    21        -4.892       1.000
    22        -4.706       1.000
    23        -4.542       1.000
    24        -1.468       0.999
    25        -1.410       0.999
    26        -1.319       0.997
    27        -0.241       0.007
    28        -0.058       0.001
    29         0.711       0.000
    30         0.840       0.000
    31         0.946       0.000
    32         1.210       0.000
    33         1.391       0.000
    34         3.621       0.000
   ...
    41         5.743       0.000
(only showing first 3 out of 144 k-points)

Gap: 0.817 eV
Transition (v -> c):
  (s=0, k=137, n=26, [0.50, -0.00, 0.00]) -> (s=0, k=68, n=27, [-0.00, 0.25, 0.00])
# Writing to gsq-07.gpw (mode='')

---

timing:  # [seconds]
  Total: 480.359  # ━━━━━━━━━━━━━━━━━━━━━━━━━━━━━━━━━━━━━━━━━━━━━━━━━━━━━━━━━
  Init:   14.484  # ━╸
  SCF:   465.312  # ━━━━━━━━━━━━━━━━━━━━━━━━━━━━━━━━━━━━━━━━━━━━━━━━━━━━━━━

Max RSS: 516.516  # MiB
