#  __  _  _
# | _ |_)|_||  |
# |__||  | ||/\| - 24.1.0

User:   s194099@n-62-29-15
Date:   Wed Apr 17 15:34:17 2024
Arch:   x86_64
Pid:    22110
CWD:    /zhome/84/5/147090/10302_NM/VBr2
Python: 3.8.5
gpaw:   /zhome/84/5/147090/venv1/gpaw/gpaw (10808453a8)
_gpaw:  /zhome/84/5/147090/venv1/gpaw/
        _gpaw.cpython-38-x86_64-linux-gnu.so (10808453a8)
ase:    /zhome/84/5/147090/venv1/ase/ase (version 3.23.0b1-c36115a2db)
numpy:  /zhome/84/5/147090/venv1/lib/python3.8/site-packages/numpy (version 1.24.4)
scipy:  /zhome/84/5/147090/venv1/lib/python3.8/site-packages/scipy (version 1.10.1)
libxc:  4.3.4
units:  Angstrom and eV
cores: 12
OpenMP: False
OMP_NUM_THREADS: 1

---
input parameters:
  kpts: 
    density: 6.0
    gamma: True
  magmoms: [[1, 0, 0], [0, 0, 0], [0, 0, 0]]
  mixer: 
    backend: 'pulay'
    beta: 0.05
    method: 'sum'
    nmaxold: 5
    weight: 100
  mode: 
    name: 'pw'
    ecut: 600
    qspiral: array([0.33333333, 0.33333333, 0.        ])
  parallel: 
    kpt: None
    domain: 1
    band: 1
    order: 'kdb'
    stridebands: False
    augment_grids: False
    sl_auto: False
    sl_default: None
    sl_diagonalize: None
    sl_inverse_cholesky: None
    sl_lcao: None
    sl_lrtddft: None
    use_elpa: False
    elpasolver: '2stage'
    buffer_size: None
    gpu: False
  symmetry: 
    point_group: False
    time_reversal: False
  xc: 
    name: 'LDA'

#                        
#                        
#                        
#                        
#                        
#              Br        
#                        
#        V               
#          Br            
#                        
#                        
#                        
#                        
#                        

atoms: [  # symbols, positions [Ang] and initial magnetic moments
  [  V, [   0.000000,    0.000000,    7.513573], [ 1.000,  0.000,  0.000]], # 0
  [ Br, [   1.984831,    1.145943,    9.027147], [ 0.000,  0.000,  0.000]], # 1
  [ Br, [  -0.000000,    2.291886,    6.000000], [ 0.000,  0.000,  0.000]]] # 2

cell: [  # Ang
#     x            y            z
  [   3.969662,    0.000000,    0.000000],
  [  -1.984831,    3.437828,    0.000000],
  [   0.000000,   -0.000000,   15.027147]]

periodic: [True      , True      , False     ]
lengths:  [  3.969662,   3.969662,  15.027147]  # Ang
angles:   [ 90.000000,  90.000000, 120.000000]

symmetry:
  number of symmetries: 1
  rotations: [
    [[ 1,  0,  0], [ 0,  1,  0], [ 0,  0,  1]]]

bz sampling:
  number of bz points: 121
  number of ibz points: 121
  monkhorst-pack size: [11, 11, 1]
  monkhorst-pack shift: [0, 0, 0]
  points and weights: [
    [[ -0.45454545,  -0.45454545,   0.00000000], 0.00826446],  # 0
    [[ -0.45454545,  -0.36363636,   0.00000000], 0.00826446],  # 1
    [[ -0.45454545,  -0.27272727,   0.00000000], 0.00826446],  # 2
    [[ -0.45454545,  -0.18181818,   0.00000000], 0.00826446],  # 3
    [[ -0.45454545,  -0.09090909,   0.00000000], 0.00826446],  # 4
    [[ -0.45454545,   0.00000000,   0.00000000], 0.00826446],  # 5
    [[ -0.45454545,   0.09090909,   0.00000000], 0.00826446],  # 6
    [[ -0.45454545,   0.18181818,   0.00000000], 0.00826446],  # 7
    [[ -0.45454545,   0.27272727,   0.00000000], 0.00826446],  # 8
    [[ -0.45454545,   0.36363636,   0.00000000], 0.00826446],  # 9
    # ...
    [[  0.45454545,   0.45454545,   0.00000000], 0.00826446]]  # 120

plane wave coefficients: 6874
cutoff: 600.0 eV

spin-components: 4  # (non-collinear spins)
bands: 42
valence electrons: 27.0
spin-degeneracy: 1
dtype: complex128

memory:
    wave functions: 1_113_974_400  # bytes  (92_831_200 per core)

parallelization:
    kpt:    12
    domain: 1
    band:   1

density:
  components: 4
  grid points: [24 24 90]
  charge: 0.0  # |e|

potential:
  grid points: [24 24 90]

species:
  V:
    name: Vanadium
    id: 7939ce69e6bb5930668dfcf9bb1979c3
    Z: 23.0
    valence: 13
    core: 10
    charge: 0.0
    file: /zhome/86/d/1666/PAW/gpaw-setups-0.9.20000/V.LDA.gz
    compensation charges: {type: gauss,
                           rc: 0.37,
                           lmax: 2}
    cutoffs: {filter: 2.14,
              core: 0.96}
    valence states:
      #              energy  rcut
      - 3s(2.00)   -69.819   1.254
      - 4s(2.00)    -4.846   1.254
      - 3p(6.00)   -43.961   1.281
      - 4p(0.00)    -1.526   1.281
      - 3d(3.00)    -5.381   1.169
      -  d          21.830   1.169
  
    # Using partial waves for V as LCAO basis

  Br:
    name: Bromine
    id: 10a25bbcb3273ec7d8d7f6fc01d2618d
    Z: 35.0
    valence: 7
    core: 28
    charge: 0.0
    file: /zhome/86/d/1666/PAW/gpaw-setups-0.9.20000/Br.LDA.gz
    compensation charges: {type: gauss,
                           rc: 0.35,
                           lmax: 2}
    cutoffs: {filter: 1.98,
              core: 2.38}
    valence states:
      #              energy  rcut
      - 4s(2.00)   -20.306   1.111
      - 4p(5.00)    -8.003   1.111
      -  s           6.906   1.111
      -  p          19.208   1.111
      -  d           0.000   1.111
  
    # Using partial waves for Br as LCAO basis

Reference energy: -167392.690611  # eV

eigensolver:
  name: 'Davidson'
  niter: 2
  converge_bands: 'occupied'
Density mixing:
  Method: sum
  Backend: pulay
  Linear mixing parameter: 0.05
  old densities: 5
  Damping of long wavelength oscillations: 100
occupation numbers:
  Fermi-Dirac:
    width: 0.1000  # eV
  

poisson solver:
  ecut: 4800.0  # eV

xc functional:
  name: None

convergence criteria:
- Maximum [total energy] change in last 3 cyles: 0.0005 eV / valence electron
- Maximum integral of absolute [dens]ity change: 0.0001 electrons / valence electron
- Maximum integral of absolute [eigenst]ate change: 4e-08 eV^2 / valence electron
maximum number of iterations: 333

#      iter     time        total  log10-change:
#                          energy   eigst   dens
# iter:   1 15:34:45   -13.826933                  +1.0,+0.0,+0.0
# iter:   2 15:35:03   -14.766463   +0.19  -1.45   +1.4,-0.0,-0.0
# iter:   3 15:35:20   -14.918106   -0.60  -1.47   +1.7,-0.0,-0.0
# iter:   4 15:35:37   -15.096303   -1.26  -1.54   +1.9,-0.0,-0.0
# iter:   5 15:35:54   -15.309528   -1.78  -1.68   +2.4,-0.0,+0.0
# iter:   6 15:36:11   -15.304761   -2.01  -1.98   +2.5,-0.0,-0.0
# iter:   7 15:36:28   -15.310048c  -2.38  -2.31   +2.6,-0.0,-0.0
# iter:   8 15:36:45   -15.306454c  -2.84  -2.51   +2.6,-0.0,-0.0
# iter:   9 15:37:03   -15.309984c  -2.94  -2.69   +2.7,-0.0,-0.0
# iter:  10 15:37:20   -15.307403c  -3.57  -2.68   +2.7,-0.0,+0.0
# iter:  11 15:37:37   -15.307450c  -4.06  -3.53   +2.7,-0.0,+0.0
# iter:  12 15:37:54   -15.307458c  -4.36  -3.56   +2.7,+0.0,+0.0
# iter:  13 15:38:11   -15.307464c  -4.66  -3.67   +2.7,+0.0,+0.0
# iter:  14 15:38:28   -15.307491c  -4.87  -3.74   +2.7,+0.0,+0.0
# iter:  15 15:38:45   -15.307483c  -5.10  -3.82   +2.7,+0.0,+0.0
# iter:  16 15:39:02   -15.307483c  -5.37  -4.26c  +2.7,+0.0,+0.0
# iter:  17 15:39:19   -15.307483c  -5.61  -4.30c  +2.7,+0.0,+0.0
# iter:  18 15:39:36   -15.307481c  -5.84  -4.31c  +2.7,+0.0,+0.0
# iter:  19 15:39:53   -15.307481c  -6.08  -4.25c  +2.7,+0.0,+0.0
# iter:  20 15:40:10   -15.307481c  -6.31  -4.26c  +2.7,+0.0,+0.0
# iter:  21 15:40:27   -15.307481c  -6.53  -4.36c  +2.7,+0.0,+0.0
# iter:  22 15:40:44   -15.307483c  -6.65  -4.41c  +2.7,+0.0,+0.0
# iter:  23 15:41:01   -15.307483c  -6.89  -4.61c  +2.7,+0.0,+0.0
# iter:  24 15:41:18   -15.307484c  -6.96  -4.67c  +2.7,+0.0,+0.0
# iter:  25 15:41:35   -15.307484c  -7.32  -5.25c  +2.7,+0.0,+0.0
# iter:  26 15:41:52   -15.307484c  -7.56c -5.44c  +2.7,+0.0,+0.0
scf_steps: 26
energies:  # eV
  coulomb:           0.351644
  zero:              0.054232
  xc:              -14.595303
  external:          0.000000
  kinetic:          -1.112382
  spinorbit:         0.000000
  entropy:          -0.011351
  total:           -15.313160
  extrapolated:    -15.307484

dipole moment: [-4.739077, -8.207731, -7.881824]  # |e|*Ang

total magnetic moment: [2.671922, 0.000003, 0.000000]

local magnetic moments: [
  [ 2.594571,  0.000000,  0.000000],  # V  0
  [-0.000041,  0.000070,  0.000000],  # Br 1
  [ 0.000081, -0.000001,  0.000000]]  # Br 2


Fermi level: -1.203 eV

kpt = [-0.455, -0.455, 0.000], weight = 0.008:
  Band      eig [eV]   occ [0-1]
     0       -65.928       1.000
   ...
    19        -5.404       1.000
    20        -5.217       1.000
    21        -5.153       1.000
    22        -5.031       1.000
    23        -4.973       1.000
    24        -1.886       0.999
    25        -1.725       0.995
    26        -1.697       0.993
    27        -0.619       0.003
    28        -0.589       0.002
    29         0.431       0.000
    30         0.519       0.000
    31         0.545       0.000
    32         0.887       0.000
    33         0.906       0.000
    34         3.040       0.000
   ...
    41         5.885       0.000

kpt = [-0.455, -0.364, 0.000], weight = 0.008:
  Band      eig [eV]   occ [0-1]
     0       -65.928       1.000
   ...
    19        -5.333       1.000
    20        -5.205       1.000
    21        -5.195       1.000
    22        -4.977       1.000
    23        -4.841       1.000
    24        -1.885       0.999
    25        -1.817       0.998
    26        -1.716       0.994
    27        -0.663       0.004
    28        -0.573       0.002
    29         0.426       0.000
    30         0.480       0.000
    31         0.545       0.000
    32         0.855       0.000
    33         0.922       0.000
    34         2.763       0.000
   ...
    41         5.295       0.000

kpt = [-0.455, -0.273, 0.000], weight = 0.008:
  Band      eig [eV]   occ [0-1]
     0       -65.928       1.000
   ...
    19        -5.246       1.000
    20        -5.099       1.000
    21        -4.966       1.000
    22        -4.862       1.000
    23        -4.695       1.000
    24        -1.971       1.000
    25        -1.889       0.999
    26        -1.704       0.993
    27        -0.679       0.005
    28        -0.559       0.002
    29         0.296       0.000
    30         0.449       0.000
    31         0.590       0.000
    32         0.809       0.000
    33         0.922       0.000
    34         2.535       0.000
   ...
    41         4.936       0.000
(only showing first 3 out of 121 k-points)

Gap: 0.847 eV
Transition (v -> c):
  (s=0, k=60, n=26, [0.00, 0.00, 0.00]) -> (s=0, k=58, n=27, [0.00, -0.18, 0.00])
# Writing to gsq-16.gpw (mode='')

