#  __  _  _
# | _ |_)|_||  |
# |__||  | ||/\| - 24.1.0

User:   s194099@n-62-29-15
Date:   Wed Apr 17 14:42:57 2024
Arch:   x86_64
Pid:    22110
CWD:    /zhome/84/5/147090/10302_NM/VBr2
Python: 3.8.5
gpaw:   /zhome/84/5/147090/venv1/gpaw/gpaw (10808453a8)
_gpaw:  /zhome/84/5/147090/venv1/gpaw/
        _gpaw.cpython-38-x86_64-linux-gnu.so (10808453a8)
ase:    /zhome/84/5/147090/venv1/ase/ase (version 3.23.0b1-c36115a2db)
numpy:  /zhome/84/5/147090/venv1/lib/python3.8/site-packages/numpy (version 1.24.4)
scipy:  /zhome/84/5/147090/venv1/lib/python3.8/site-packages/scipy (version 1.10.1)
libxc:  4.3.4
units:  Angstrom and eV
cores: 12
OpenMP: False
OMP_NUM_THREADS: 1

---
input parameters:
  kpts: 
    density: 6.0
    gamma: True
  magmoms: [[1, 0, 0], [0, 0, 0], [0, 0, 0]]
  mixer: 
    backend: 'pulay'
    beta: 0.05
    method: 'sum'
    nmaxold: 5
    weight: 100
  mode: 
    name: 'pw'
    ecut: 600
    qspiral: array([0.45, 0.  , 0.  ])
  parallel: 
    kpt: None
    domain: 1
    band: 1
    order: 'kdb'
    stridebands: False
    augment_grids: False
    sl_auto: False
    sl_default: None
    sl_diagonalize: None
    sl_inverse_cholesky: None
    sl_lcao: None
    sl_lrtddft: None
    use_elpa: False
    elpasolver: '2stage'
    buffer_size: None
    gpu: False
  symmetry: 
    point_group: False
    time_reversal: False
  xc: 
    name: 'LDA'

#                        
#                        
#                        
#                        
#                        
#              Br        
#                        
#        V               
#          Br            
#                        
#                        
#                        
#                        
#                        

atoms: [  # symbols, positions [Ang] and initial magnetic moments
  [  V, [   0.000000,    0.000000,    7.513573], [ 1.000,  0.000,  0.000]], # 0
  [ Br, [   1.984831,    1.145943,    9.027147], [ 0.000,  0.000,  0.000]], # 1
  [ Br, [  -0.000000,    2.291886,    6.000000], [ 0.000,  0.000,  0.000]]] # 2

cell: [  # Ang
#     x            y            z
  [   3.969662,    0.000000,    0.000000],
  [  -1.984831,    3.437828,    0.000000],
  [   0.000000,   -0.000000,   15.027147]]

periodic: [True      , True      , False     ]
lengths:  [  3.969662,   3.969662,  15.027147]  # Ang
angles:   [ 90.000000,  90.000000, 120.000000]

symmetry:
  number of symmetries: 1
  rotations: [
    [[ 1,  0,  0], [ 0,  1,  0], [ 0,  0,  1]]]

bz sampling:
  number of bz points: 121
  number of ibz points: 121
  monkhorst-pack size: [11, 11, 1]
  monkhorst-pack shift: [0, 0, 0]
  points and weights: [
    [[ -0.45454545,  -0.45454545,   0.00000000], 0.00826446],  # 0
    [[ -0.45454545,  -0.36363636,   0.00000000], 0.00826446],  # 1
    [[ -0.45454545,  -0.27272727,   0.00000000], 0.00826446],  # 2
    [[ -0.45454545,  -0.18181818,   0.00000000], 0.00826446],  # 3
    [[ -0.45454545,  -0.09090909,   0.00000000], 0.00826446],  # 4
    [[ -0.45454545,   0.00000000,   0.00000000], 0.00826446],  # 5
    [[ -0.45454545,   0.09090909,   0.00000000], 0.00826446],  # 6
    [[ -0.45454545,   0.18181818,   0.00000000], 0.00826446],  # 7
    [[ -0.45454545,   0.27272727,   0.00000000], 0.00826446],  # 8
    [[ -0.45454545,   0.36363636,   0.00000000], 0.00826446],  # 9
    # ...
    [[  0.45454545,   0.45454545,   0.00000000], 0.00826446]]  # 120

plane wave coefficients: 6874
cutoff: 600.0 eV

spin-components: 4  # (non-collinear spins)
bands: 42
valence electrons: 27.0
spin-degeneracy: 1
dtype: complex128

memory:
    wave functions: 1_113_974_400  # bytes  (92_831_200 per core)

parallelization:
    kpt:    12
    domain: 1
    band:   1

density:
  components: 4
  grid points: [24 24 90]
  charge: 0.0  # |e|

potential:
  grid points: [24 24 90]

species:
  V:
    name: Vanadium
    id: 7939ce69e6bb5930668dfcf9bb1979c3
    Z: 23.0
    valence: 13
    core: 10
    charge: 0.0
    file: /zhome/86/d/1666/PAW/gpaw-setups-0.9.20000/V.LDA.gz
    compensation charges: {type: gauss,
                           rc: 0.37,
                           lmax: 2}
    cutoffs: {filter: 2.14,
              core: 0.96}
    valence states:
      #              energy  rcut
      - 3s(2.00)   -69.819   1.254
      - 4s(2.00)    -4.846   1.254
      - 3p(6.00)   -43.961   1.281
      - 4p(0.00)    -1.526   1.281
      - 3d(3.00)    -5.381   1.169
      -  d          21.830   1.169
  
    # Using partial waves for V as LCAO basis

  Br:
    name: Bromine
    id: 10a25bbcb3273ec7d8d7f6fc01d2618d
    Z: 35.0
    valence: 7
    core: 28
    charge: 0.0
    file: /zhome/86/d/1666/PAW/gpaw-setups-0.9.20000/Br.LDA.gz
    compensation charges: {type: gauss,
                           rc: 0.35,
                           lmax: 2}
    cutoffs: {filter: 1.98,
              core: 2.38}
    valence states:
      #              energy  rcut
      - 4s(2.00)   -20.306   1.111
      - 4p(5.00)    -8.003   1.111
      -  s           6.906   1.111
      -  p          19.208   1.111
      -  d           0.000   1.111
  
    # Using partial waves for Br as LCAO basis

Reference energy: -167392.690611  # eV

eigensolver:
  name: 'Davidson'
  niter: 2
  converge_bands: 'occupied'
Density mixing:
  Method: sum
  Backend: pulay
  Linear mixing parameter: 0.05
  old densities: 5
  Damping of long wavelength oscillations: 100
occupation numbers:
  Fermi-Dirac:
    width: 0.1000  # eV
  

poisson solver:
  ecut: 4800.0  # eV

xc functional:
  name: None

convergence criteria:
- Maximum [total energy] change in last 3 cyles: 0.0005 eV / valence electron
- Maximum integral of absolute [dens]ity change: 0.0001 electrons / valence electron
- Maximum integral of absolute [eigenst]ate change: 4e-08 eV^2 / valence electron
maximum number of iterations: 333

#      iter     time        total  log10-change:
#                          energy   eigst   dens
# iter:   1 14:43:25   -14.181671                  +1.0,+0.0,+0.0
# iter:   2 14:43:42   -14.811065   -0.03  -1.45   +1.5,-0.0,-0.0
# iter:   3 14:43:59   -14.923306   -0.84  -1.47   +1.8,-0.0,-0.0
# iter:   4 14:44:16   -15.098389   -1.41  -1.54   +2.1,-0.0,-0.0
# iter:   5 14:44:33   -15.308834   -1.97  -1.68   +2.6,-0.0,-0.0
# iter:   6 14:44:51   -15.303385   -2.12  -2.04   +2.7,-0.0,-0.0
# iter:   7 14:45:08   -15.305935c  -2.52  -2.31   +2.7,-0.0,-0.0
# iter:   8 14:45:25   -15.302572c  -3.09  -2.58   +2.7,-0.0,-0.0
# iter:   9 14:45:42   -15.303393c  -3.68  -2.74   +2.7,-0.0,-0.0
# iter:  10 14:45:59   -15.303664c  -3.96  -3.04   +2.8,-0.0,-0.0
# iter:  11 14:46:17   -15.303759c  -4.34  -3.45   +2.8,-0.0,-0.0
# iter:  12 14:46:34   -15.303771c  -4.67  -3.63   +2.8,-0.0,-0.0
# iter:  13 14:46:51   -15.303807c  -4.86  -3.65   +2.8,-0.0,-0.0
# iter:  14 14:47:08   -15.303805c  -5.15  -3.74   +2.8,-0.0,-0.0
# iter:  15 14:47:25   -15.303801c  -5.40  -3.79   +2.8,-0.0,-0.0
# iter:  16 14:47:42   -15.303796c  -5.66  -3.83   +2.8,-0.0,-0.0
# iter:  17 14:47:59   -15.303789c  -5.83  -3.86   +2.8,-0.0,-0.0
# iter:  18 14:48:16   -15.303774c  -6.09  -3.91   +2.8,-0.0,-0.0
# iter:  19 14:48:33   -15.303776c  -6.37  -4.04c  +2.8,-0.0,-0.0
# iter:  20 14:48:50   -15.303776c  -6.61  -4.12c  +2.8,-0.0,-0.0
# iter:  21 14:49:07   -15.303778c  -6.82  -4.16c  +2.8,-0.0,-0.0
# iter:  22 14:49:24   -15.303780c  -6.78  -4.20c  +2.8,-0.0,-0.0
# iter:  23 14:49:42   -15.303780c  -7.07  -4.38c  +2.8,-0.0,-0.0
# iter:  24 14:49:59   -15.303780c  -7.30  -4.54c  +2.8,-0.0,-0.0
# iter:  25 14:50:16   -15.303781c  -7.49c -4.66c  +2.8,-0.0,-0.0
scf_steps: 25
energies:  # eV
  coulomb:           0.241648
  zero:              0.055815
  xc:              -14.624929
  external:          0.000000
  kinetic:          -0.970164
  spinorbit:         0.000000
  entropy:          -0.012304
  total:           -15.309933
  extrapolated:    -15.303781

dipole moment: [-4.675217, -8.672178, -8.690335]  # |e|*Ang

total magnetic moment: [2.776878, -0.000464, -0.000000]

local magnetic moments: [
  [ 2.602928,  0.000000, -0.000000],  # V  0
  [ 0.010969,  0.008891, -0.000000],  # Br 1
  [-0.013179,  0.005067, -0.000000]]  # Br 2


Fermi level: -1.207 eV

kpt = [-0.455, -0.455, 0.000], weight = 0.008:
  Band      eig [eV]   occ [0-1]
     0       -65.919       1.000
   ...
    19        -5.352       1.000
    20        -5.202       1.000
    21        -5.150       1.000
    22        -4.958       1.000
    23        -4.802       1.000
    24        -1.960       0.999
    25        -1.758       0.996
    26        -1.667       0.990
    27        -0.668       0.005
    28        -0.513       0.001
    29         0.269       0.000
    30         0.427       0.000
    31         0.622       0.000
    32         0.929       0.000
    33         0.971       0.000
    34         2.794       0.000
   ...
    41         5.405       0.000

kpt = [-0.455, -0.364, 0.000], weight = 0.008:
  Band      eig [eV]   occ [0-1]
     0       -65.919       1.000
   ...
    19        -5.265       1.000
    20        -5.147       1.000
    21        -5.023       1.000
    22        -4.893       1.000
    23        -4.688       1.000
    24        -1.973       1.000
    25        -1.781       0.997
    26        -1.690       0.992
    27        -0.703       0.006
    28        -0.520       0.001
    29         0.325       0.000
    30         0.453       0.000
    31         0.640       0.000
    32         0.805       0.000
    33         0.949       0.000
    34         2.684       0.000
   ...
    41         5.597       0.000

kpt = [-0.455, -0.273, 0.000], weight = 0.008:
  Band      eig [eV]   occ [0-1]
     0       -65.919       1.000
   ...
    19        -5.293       1.000
    20        -5.235       1.000
    21        -4.873       1.000
    22        -4.794       1.000
    23        -4.582       1.000
    24        -1.921       0.999
    25        -1.773       0.997
    26        -1.759       0.996
    27        -0.783       0.014
    28        -0.522       0.001
    29         0.396       0.000
    30         0.486       0.000
    31         0.520       0.000
    32         0.679       0.000
    33         0.919       0.000
    34         2.717       0.000
   ...
    41         5.255       0.000
(only showing first 3 out of 121 k-points)

Gap: 0.796 eV
Transition (v -> c):
  (s=0, k=115, n=26, [0.45, 0.00, 0.00]) -> (s=0, k=58, n=27, [0.00, -0.18, 0.00])
# Writing to gsq-09.gpw (mode='')

---

timing:  # [seconds]
  Total: 440.654  # ━━━━━━━━━━━━━━━━━━━━━━━━━━━━━━━━━━━━━━━━━━━━━━━━━━━━━━━━━
  Init:   12.316  # ━╸
  SCF:   427.065  # ━━━━━━━━━━━━━━━━━━━━━━━━━━━━━━━━━━━━━━━━━━━━━━━━━━━━━━━

Max RSS: 610.891  # MiB
