#  __  _  _
# | _ |_)|_||  |
# |__||  | ||/\| - 24.1.0

User:   s194099@n-62-29-15
Date:   Wed Apr 17 16:17:01 2024
Arch:   x86_64
Pid:    22110
CWD:    /zhome/84/5/147090/10302_NM/VBr2
Python: 3.8.5
gpaw:   /zhome/84/5/147090/venv1/gpaw/gpaw (10808453a8)
_gpaw:  /zhome/84/5/147090/venv1/gpaw/
        _gpaw.cpython-38-x86_64-linux-gnu.so (10808453a8)
ase:    /zhome/84/5/147090/venv1/ase/ase (version 3.23.0b1-c36115a2db)
numpy:  /zhome/84/5/147090/venv1/lib/python3.8/site-packages/numpy (version 1.24.4)
scipy:  /zhome/84/5/147090/venv1/lib/python3.8/site-packages/scipy (version 1.10.1)
libxc:  4.3.4
units:  Angstrom and eV
cores: 12
OpenMP: False
OMP_NUM_THREADS: 1

---
input parameters:
  kpts: 
    density: 6.0
    gamma: True
  magmoms: [[1, 0, 0], [0, 0, 0], [0, 0, 0]]
  mixer: 
    backend: 'pulay'
    beta: 0.05
    method: 'sum'
    nmaxold: 5
    weight: 100
  mode: 
    name: 'pw'
    ecut: 600
    qspiral: array([0.19047619, 0.19047619, 0.        ])
  parallel: 
    kpt: None
    domain: 1
    band: 1
    order: 'kdb'
    stridebands: False
    augment_grids: False
    sl_auto: False
    sl_default: None
    sl_diagonalize: None
    sl_inverse_cholesky: None
    sl_lcao: None
    sl_lrtddft: None
    use_elpa: False
    elpasolver: '2stage'
    buffer_size: None
    gpu: False
  symmetry: 
    point_group: False
    time_reversal: False
  xc: 
    name: 'LDA'

#                        
#                        
#                        
#                        
#                        
#              Br        
#                        
#        V               
#          Br            
#                        
#                        
#                        
#                        
#                        

atoms: [  # symbols, positions [Ang] and initial magnetic moments
  [  V, [   0.000000,    0.000000,    7.513573], [ 1.000,  0.000,  0.000]], # 0
  [ Br, [   1.984831,    1.145943,    9.027147], [ 0.000,  0.000,  0.000]], # 1
  [ Br, [  -0.000000,    2.291886,    6.000000], [ 0.000,  0.000,  0.000]]] # 2

cell: [  # Ang
#     x            y            z
  [   3.969662,    0.000000,    0.000000],
  [  -1.984831,    3.437828,    0.000000],
  [   0.000000,   -0.000000,   15.027147]]

periodic: [True      , True      , False     ]
lengths:  [  3.969662,   3.969662,  15.027147]  # Ang
angles:   [ 90.000000,  90.000000, 120.000000]

symmetry:
  number of symmetries: 1
  rotations: [
    [[ 1,  0,  0], [ 0,  1,  0], [ 0,  0,  1]]]

bz sampling:
  number of bz points: 121
  number of ibz points: 121
  monkhorst-pack size: [11, 11, 1]
  monkhorst-pack shift: [0, 0, 0]
  points and weights: [
    [[ -0.45454545,  -0.45454545,   0.00000000], 0.00826446],  # 0
    [[ -0.45454545,  -0.36363636,   0.00000000], 0.00826446],  # 1
    [[ -0.45454545,  -0.27272727,   0.00000000], 0.00826446],  # 2
    [[ -0.45454545,  -0.18181818,   0.00000000], 0.00826446],  # 3
    [[ -0.45454545,  -0.09090909,   0.00000000], 0.00826446],  # 4
    [[ -0.45454545,   0.00000000,   0.00000000], 0.00826446],  # 5
    [[ -0.45454545,   0.09090909,   0.00000000], 0.00826446],  # 6
    [[ -0.45454545,   0.18181818,   0.00000000], 0.00826446],  # 7
    [[ -0.45454545,   0.27272727,   0.00000000], 0.00826446],  # 8
    [[ -0.45454545,   0.36363636,   0.00000000], 0.00826446],  # 9
    # ...
    [[  0.45454545,   0.45454545,   0.00000000], 0.00826446]]  # 120

plane wave coefficients: 6874
cutoff: 600.0 eV

spin-components: 4  # (non-collinear spins)
bands: 42
valence electrons: 27.0
spin-degeneracy: 1
dtype: complex128

memory:
    wave functions: 1_113_974_400  # bytes  (92_831_200 per core)

parallelization:
    kpt:    12
    domain: 1
    band:   1

density:
  components: 4
  grid points: [24 24 90]
  charge: 0.0  # |e|

potential:
  grid points: [24 24 90]

species:
  V:
    name: Vanadium
    id: 7939ce69e6bb5930668dfcf9bb1979c3
    Z: 23.0
    valence: 13
    core: 10
    charge: 0.0
    file: /zhome/86/d/1666/PAW/gpaw-setups-0.9.20000/V.LDA.gz
    compensation charges: {type: gauss,
                           rc: 0.37,
                           lmax: 2}
    cutoffs: {filter: 2.14,
              core: 0.96}
    valence states:
      #              energy  rcut
      - 3s(2.00)   -69.819   1.254
      - 4s(2.00)    -4.846   1.254
      - 3p(6.00)   -43.961   1.281
      - 4p(0.00)    -1.526   1.281
      - 3d(3.00)    -5.381   1.169
      -  d          21.830   1.169
  
    # Using partial waves for V as LCAO basis

  Br:
    name: Bromine
    id: 10a25bbcb3273ec7d8d7f6fc01d2618d
    Z: 35.0
    valence: 7
    core: 28
    charge: 0.0
    file: /zhome/86/d/1666/PAW/gpaw-setups-0.9.20000/Br.LDA.gz
    compensation charges: {type: gauss,
                           rc: 0.35,
                           lmax: 2}
    cutoffs: {filter: 1.98,
              core: 2.38}
    valence states:
      #              energy  rcut
      - 4s(2.00)   -20.306   1.111
      - 4p(5.00)    -8.003   1.111
      -  s           6.906   1.111
      -  p          19.208   1.111
      -  d           0.000   1.111
  
    # Using partial waves for Br as LCAO basis

Reference energy: -167392.690611  # eV

eigensolver:
  name: 'Davidson'
  niter: 2
  converge_bands: 'occupied'
Density mixing:
  Method: sum
  Backend: pulay
  Linear mixing parameter: 0.05
  old densities: 5
  Damping of long wavelength oscillations: 100
occupation numbers:
  Fermi-Dirac:
    width: 0.1000  # eV
  

poisson solver:
  ecut: 4800.0  # eV

xc functional:
  name: None

convergence criteria:
- Maximum [total energy] change in last 3 cyles: 0.0005 eV / valence electron
- Maximum integral of absolute [dens]ity change: 0.0001 electrons / valence electron
- Maximum integral of absolute [eigenst]ate change: 4e-08 eV^2 / valence electron
maximum number of iterations: 333

#      iter     time        total  log10-change:
#                          energy   eigst   dens
# iter:   1 16:17:30   -14.386500                  +1.0,+0.0,+0.0
# iter:   2 16:17:47   -14.835491   -0.25  -1.44   +1.6,-0.0,-0.0
# iter:   3 16:18:04   -14.930765   -1.03  -1.47   +1.9,-0.0,-0.0
# iter:   4 16:18:22   -15.099454   -1.52  -1.55   +2.2,-0.0,+0.0
# iter:   5 16:18:39   -15.309285   -2.08  -1.69   +2.7,-0.0,-0.0
# iter:   6 16:18:56   -15.308183   -2.11  -2.08   +2.8,-0.0,+0.0
# iter:   7 16:19:14   -15.303080c  -2.91  -2.32   +2.8,-0.0,-0.0
# iter:   8 16:19:31   -15.302574c  -3.50  -2.75   +2.8,-0.0,-0.0
# iter:   9 16:19:48   -15.304580c  -3.28  -2.79   +2.8,-0.0,-0.0
# iter:  10 16:20:05   -15.303718c  -3.99  -2.72   +2.8,-0.0,-0.0
# iter:  11 16:20:22   -15.303683c  -4.41  -3.43   +2.8,-0.0,-0.0
# iter:  12 16:20:39   -15.303680c  -4.80  -3.63   +2.8,-0.0,-0.0
# iter:  13 16:20:56   -15.303675c  -5.04  -3.73   +2.8,-0.0,-0.0
# iter:  14 16:21:13   -15.303668c  -5.22  -3.82   +2.8,-0.0,-0.0
# iter:  15 16:21:30   -15.303672c  -5.51  -3.87   +2.8,-0.0,+0.0
# iter:  16 16:21:47   -15.303704c  -5.72  -3.92   +2.9,-0.0,-0.0
# iter:  17 16:22:04   -15.303705c  -6.00  -4.32c  +2.9,-0.0,-0.0
# iter:  18 16:22:21   -15.303704c  -6.24  -4.47c  +2.9,-0.0,-0.0
# iter:  19 16:22:38   -15.303704c  -6.53  -4.83c  +2.9,-0.0,+0.0
# iter:  20 16:22:55   -15.303705c  -6.78  -4.91c  +2.9,-0.0,+0.0
# iter:  21 16:23:12   -15.303704c  -7.03  -5.08c  +2.9,-0.0,+0.0
# iter:  22 16:23:29   -15.303704c  -7.28  -5.02c  +2.9,-0.0,+0.0
# iter:  23 16:23:46   -15.303704c  -7.52c -5.44c  +2.9,-0.0,+0.0
scf_steps: 23
energies:  # eV
  coulomb:           0.190928
  zero:              0.054054
  xc:              -14.659528
  external:          0.000000
  kinetic:          -0.883330
  spinorbit:         0.000000
  entropy:          -0.011656
  total:           -15.309532
  extrapolated:    -15.303704

dipole moment: [-5.016221, -8.687904, -9.171237]  # |e|*Ang

total magnetic moment: [2.854995, -0.001497, 0.000000]

local magnetic moments: [
  [ 2.617600,  0.000000,  0.000000],  # V  0
  [-0.009137,  0.023081,  0.000000],  # Br 1
  [-0.009001,  0.023134,  0.000000]]  # Br 2


Fermi level: -1.170 eV

kpt = [-0.455, -0.455, 0.000], weight = 0.008:
  Band      eig [eV]   occ [0-1]
     0       -65.901       1.000
   ...
    19        -5.267       1.000
    20        -5.145       1.000
    21        -5.115       1.000
    22        -5.074       1.000
    23        -4.979       1.000
    24        -2.012       1.000
    25        -1.677       0.994
    26        -1.670       0.993
    27        -0.571       0.002
    28        -0.507       0.001
    29         0.155       0.000
    30         0.625       0.000
    31         0.669       0.000
    32         0.983       0.000
    33         1.030       0.000
    34         2.586       0.000
   ...
    41         5.700       0.000

kpt = [-0.455, -0.364, 0.000], weight = 0.008:
  Band      eig [eV]   occ [0-1]
     0       -65.901       1.000
   ...
    19        -5.217       1.000
    20        -5.123       1.000
    21        -5.078       1.000
    22        -5.006       1.000
    23        -4.973       1.000
    24        -2.020       1.000
    25        -1.733       0.996
    26        -1.669       0.993
    27        -0.598       0.003
    28        -0.507       0.001
    29         0.260       0.000
    30         0.592       0.000
    31         0.662       0.000
    32         0.967       0.000
    33         1.015       0.000
    34         2.451       0.000
   ...
    41         5.739       0.000

kpt = [-0.455, -0.273, 0.000], weight = 0.008:
  Band      eig [eV]   occ [0-1]
     0       -65.901       1.000
   ...
    19        -5.235       1.000
    20        -5.207       1.000
    21        -5.106       1.000
    22        -4.943       1.000
    23        -4.855       1.000
    24        -1.944       1.000
    25        -1.825       0.999
    26        -1.663       0.993
    27        -0.643       0.005
    28        -0.512       0.001
    29         0.385       0.000
    30         0.440       0.000
    31         0.665       0.000
    32         0.913       0.000
    33         1.012       0.000
    34         2.588       0.000
   ...
    41         5.548       0.000
(only showing first 3 out of 121 k-points)

Gap: 0.859 eV
Transition (v -> c):
  (s=0, k=115, n=26, [0.45, 0.00, 0.00]) -> (s=0, k=50, n=27, [-0.09, 0.09, 0.00])
# Writing to gsq-22.gpw (mode='')

