#  __  _  _
# | _ |_)|_||  |
# |__||  | ||/\| - 24.1.0

User:   s194099@n-62-29-15
Date:   Wed Apr 17 15:19:35 2024
Arch:   x86_64
Pid:    22110
CWD:    /zhome/84/5/147090/10302_NM/VBr2
Python: 3.8.5
gpaw:   /zhome/84/5/147090/venv1/gpaw/gpaw (10808453a8)
_gpaw:  /zhome/84/5/147090/venv1/gpaw/
        _gpaw.cpython-38-x86_64-linux-gnu.so (10808453a8)
ase:    /zhome/84/5/147090/venv1/ase/ase (version 3.23.0b1-c36115a2db)
numpy:  /zhome/84/5/147090/venv1/lib/python3.8/site-packages/numpy (version 1.24.4)
scipy:  /zhome/84/5/147090/venv1/lib/python3.8/site-packages/scipy (version 1.10.1)
libxc:  4.3.4
units:  Angstrom and eV
cores: 12
OpenMP: False
OMP_NUM_THREADS: 1

---
input parameters:
  kpts: 
    density: 6.0
    gamma: True
  magmoms: [[1, 0, 0], [0, 0, 0], [0, 0, 0]]
  mixer: 
    backend: 'pulay'
    beta: 0.05
    method: 'sum'
    nmaxold: 5
    weight: 100
  mode: 
    name: 'pw'
    ecut: 600
    qspiral: array([0.38888889, 0.22222222, 0.        ])
  parallel: 
    kpt: None
    domain: 1
    band: 1
    order: 'kdb'
    stridebands: False
    augment_grids: False
    sl_auto: False
    sl_default: None
    sl_diagonalize: None
    sl_inverse_cholesky: None
    sl_lcao: None
    sl_lrtddft: None
    use_elpa: False
    elpasolver: '2stage'
    buffer_size: None
    gpu: False
  symmetry: 
    point_group: False
    time_reversal: False
  xc: 
    name: 'LDA'

#                        
#                        
#                        
#                        
#                        
#              Br        
#                        
#        V               
#          Br            
#                        
#                        
#                        
#                        
#                        

atoms: [  # symbols, positions [Ang] and initial magnetic moments
  [  V, [   0.000000,    0.000000,    7.513573], [ 1.000,  0.000,  0.000]], # 0
  [ Br, [   1.984831,    1.145943,    9.027147], [ 0.000,  0.000,  0.000]], # 1
  [ Br, [  -0.000000,    2.291886,    6.000000], [ 0.000,  0.000,  0.000]]] # 2

cell: [  # Ang
#     x            y            z
  [   3.969662,    0.000000,    0.000000],
  [  -1.984831,    3.437828,    0.000000],
  [   0.000000,   -0.000000,   15.027147]]

periodic: [True      , True      , False     ]
lengths:  [  3.969662,   3.969662,  15.027147]  # Ang
angles:   [ 90.000000,  90.000000, 120.000000]

symmetry:
  number of symmetries: 1
  rotations: [
    [[ 1,  0,  0], [ 0,  1,  0], [ 0,  0,  1]]]

bz sampling:
  number of bz points: 121
  number of ibz points: 121
  monkhorst-pack size: [11, 11, 1]
  monkhorst-pack shift: [0, 0, 0]
  points and weights: [
    [[ -0.45454545,  -0.45454545,   0.00000000], 0.00826446],  # 0
    [[ -0.45454545,  -0.36363636,   0.00000000], 0.00826446],  # 1
    [[ -0.45454545,  -0.27272727,   0.00000000], 0.00826446],  # 2
    [[ -0.45454545,  -0.18181818,   0.00000000], 0.00826446],  # 3
    [[ -0.45454545,  -0.09090909,   0.00000000], 0.00826446],  # 4
    [[ -0.45454545,   0.00000000,   0.00000000], 0.00826446],  # 5
    [[ -0.45454545,   0.09090909,   0.00000000], 0.00826446],  # 6
    [[ -0.45454545,   0.18181818,   0.00000000], 0.00826446],  # 7
    [[ -0.45454545,   0.27272727,   0.00000000], 0.00826446],  # 8
    [[ -0.45454545,   0.36363636,   0.00000000], 0.00826446],  # 9
    # ...
    [[  0.45454545,   0.45454545,   0.00000000], 0.00826446]]  # 120

plane wave coefficients: 6874
cutoff: 600.0 eV

spin-components: 4  # (non-collinear spins)
bands: 42
valence electrons: 27.0
spin-degeneracy: 1
dtype: complex128

memory:
    wave functions: 1_113_974_400  # bytes  (92_831_200 per core)

parallelization:
    kpt:    12
    domain: 1
    band:   1

density:
  components: 4
  grid points: [24 24 90]
  charge: 0.0  # |e|

potential:
  grid points: [24 24 90]

species:
  V:
    name: Vanadium
    id: 7939ce69e6bb5930668dfcf9bb1979c3
    Z: 23.0
    valence: 13
    core: 10
    charge: 0.0
    file: /zhome/86/d/1666/PAW/gpaw-setups-0.9.20000/V.LDA.gz
    compensation charges: {type: gauss,
                           rc: 0.37,
                           lmax: 2}
    cutoffs: {filter: 2.14,
              core: 0.96}
    valence states:
      #              energy  rcut
      - 3s(2.00)   -69.819   1.254
      - 4s(2.00)    -4.846   1.254
      - 3p(6.00)   -43.961   1.281
      - 4p(0.00)    -1.526   1.281
      - 3d(3.00)    -5.381   1.169
      -  d          21.830   1.169
  
    # Using partial waves for V as LCAO basis

  Br:
    name: Bromine
    id: 10a25bbcb3273ec7d8d7f6fc01d2618d
    Z: 35.0
    valence: 7
    core: 28
    charge: 0.0
    file: /zhome/86/d/1666/PAW/gpaw-setups-0.9.20000/Br.LDA.gz
    compensation charges: {type: gauss,
                           rc: 0.35,
                           lmax: 2}
    cutoffs: {filter: 1.98,
              core: 2.38}
    valence states:
      #              energy  rcut
      - 4s(2.00)   -20.306   1.111
      - 4p(5.00)    -8.003   1.111
      -  s           6.906   1.111
      -  p          19.208   1.111
      -  d           0.000   1.111
  
    # Using partial waves for Br as LCAO basis

Reference energy: -167392.690611  # eV

eigensolver:
  name: 'Davidson'
  niter: 2
  converge_bands: 'occupied'
Density mixing:
  Method: sum
  Backend: pulay
  Linear mixing parameter: 0.05
  old densities: 5
  Damping of long wavelength oscillations: 100
occupation numbers:
  Fermi-Dirac:
    width: 0.1000  # eV
  

poisson solver:
  ecut: 4800.0  # eV

xc functional:
  name: None

convergence criteria:
- Maximum [total energy] change in last 3 cyles: 0.0005 eV / valence electron
- Maximum integral of absolute [dens]ity change: 0.0001 electrons / valence electron
- Maximum integral of absolute [eigenst]ate change: 4e-08 eV^2 / valence electron
maximum number of iterations: 333

#      iter     time        total  log10-change:
#                          energy   eigst   dens
# iter:   1 15:20:03   -13.961635                  +1.0,+0.0,+0.0
# iter:   2 15:20:20   -14.785761   +0.12  -1.45   +1.5,-0.0,+0.0
# iter:   3 15:20:38   -14.921797   -0.68  -1.47   +1.7,-0.0,-0.0
# iter:   4 15:20:55   -15.098393   -1.31  -1.54   +2.0,-0.0,-0.0
# iter:   5 15:21:12   -15.310789   -1.84  -1.68   +2.5,-0.0,-0.0
# iter:   6 15:21:30   -15.304675   -2.05  -2.01   +2.6,-0.0,-0.0
# iter:   7 15:21:47   -15.309440c  -2.45  -2.31   +2.6,-0.0,-0.0
# iter:   8 15:22:04   -15.305516c  -2.92  -2.54   +2.6,-0.0,+0.0
# iter:   9 15:22:21   -15.307303c  -3.28  -2.71   +2.7,-0.0,+0.0
# iter:  10 15:22:39   -15.306611c  -3.82  -2.89   +2.7,-0.0,+0.0
# iter:  11 15:22:56   -15.306662c  -4.25  -3.61   +2.7,-0.0,+0.0
# iter:  12 15:23:13   -15.306670c  -4.54  -3.62   +2.7,-0.0,+0.0
# iter:  13 15:23:30   -15.306702c  -4.73  -3.65   +2.7,-0.0,+0.0
# iter:  14 15:23:48   -15.306691c  -4.99  -3.94   +2.7,-0.0,+0.0
# iter:  15 15:24:05   -15.306693c  -5.26  -4.42c  +2.7,-0.0,+0.0
# iter:  16 15:24:23   -15.306693c  -5.51  -4.43c  +2.7,-0.0,+0.0
# iter:  17 15:24:41   -15.306692c  -5.74  -4.44c  +2.7,-0.0,-0.0
# iter:  18 15:24:58   -15.306690c  -5.97  -4.60c  +2.7,-0.0,-0.0
# iter:  19 15:25:16   -15.306690c  -6.21  -4.72c  +2.7,-0.0,-0.0
# iter:  20 15:25:33   -15.306690c  -6.45  -4.71c  +2.7,-0.0,-0.0
# iter:  21 15:25:50   -15.306691c  -6.66  -4.67c  +2.7,-0.0,+0.0
# iter:  22 15:26:07   -15.306691c  -6.85  -4.93c  +2.7,-0.0,+0.0
# iter:  23 15:26:24   -15.306691c  -7.09  -5.05c  +2.7,-0.0,+0.0
# iter:  24 15:26:42   -15.306691c  -7.31  -5.43c  +2.7,-0.0,+0.0
# iter:  25 15:26:59   -15.306691c  -7.53c -5.48c  +2.7,-0.0,+0.0
scf_steps: 25
energies:  # eV
  coulomb:           0.325777
  zero:              0.054168
  xc:              -14.602850
  external:          0.000000
  kinetic:          -1.078025
  spinorbit:         0.000000
  entropy:          -0.011522
  total:           -15.312452
  extrapolated:    -15.306691

dipole moment: [-4.696439, -8.357681, -8.184430]  # |e|*Ang

total magnetic moment: [2.708523, -0.000140, 0.000000]

local magnetic moments: [
  [ 2.596800,  0.000000,  0.000000],  # V  0
  [ 0.006969,  0.000052, -0.000000],  # Br 1
  [-0.005305,  0.004519, -0.000000]]  # Br 2


Fermi level: -1.204 eV

kpt = [-0.455, -0.455, 0.000], weight = 0.008:
  Band      eig [eV]   occ [0-1]
     0       -65.926       1.000
   ...
    19        -5.382       1.000
    20        -5.210       1.000
    21        -5.153       1.000
    22        -5.036       1.000
    23        -4.967       1.000
    24        -1.900       0.999
    25        -1.730       0.995
    26        -1.692       0.992
    27        -0.634       0.003
    28        -0.559       0.002
    29         0.397       0.000
    30         0.487       0.000
    31         0.588       0.000
    32         0.896       0.000
    33         0.933       0.000
    34         2.973       0.000
   ...
    41         5.671       0.000

kpt = [-0.455, -0.364, 0.000], weight = 0.008:
  Band      eig [eV]   occ [0-1]
     0       -65.926       1.000
   ...
    19        -5.313       1.000
    20        -5.258       1.000
    21        -5.160       1.000
    22        -4.894       1.000
    23        -4.863       1.000
    24        -1.910       0.999
    25        -1.783       0.997
    26        -1.722       0.994
    27        -0.684       0.005
    28        -0.552       0.001
    29         0.403       0.000
    30         0.486       0.000
    31         0.564       0.000
    32         0.835       0.000
    33         0.932       0.000
    34         2.740       0.000
   ...
    41         5.505       0.000

kpt = [-0.455, -0.273, 0.000], weight = 0.008:
  Band      eig [eV]   occ [0-1]
     0       -65.926       1.000
   ...
    19        -5.255       1.000
    20        -5.106       1.000
    21        -4.933       1.000
    22        -4.758       1.000
    23        -4.716       1.000
    24        -1.970       1.000
    25        -1.830       0.998
    26        -1.727       0.995
    27        -0.722       0.008
    28        -0.548       0.001
    29         0.323       0.000
    30         0.475       0.000
    31         0.551       0.000
    32         0.758       0.000
    33         0.907       0.000
    34         2.605       0.000
   ...
    41         4.888       0.000
(only showing first 3 out of 121 k-points)

Gap: 0.818 eV
Transition (v -> c):
  (s=0, k=60, n=26, [0.00, 0.00, 0.00]) -> (s=0, k=57, n=27, [0.00, -0.27, 0.00])
# Writing to gsq-14.gpw (mode='')

---

timing:  # [seconds]
  Total: 7003.015  # ━━━━━━━━━━━━━━━━━━━━━━━━━━━━━━━━━━━━━━━━━━━━━━━━━━━━━━━━
  Init:    11.953  # 
  SCF:    432.146  # ━━━╸

Max RSS: 1083.938  # MiB
