#  __  _  _
# | _ |_)|_||  |
# |__||  | ||/\| - 24.1.0

User:   s194099@n-62-29-15
Date:   Wed Apr 17 13:50:57 2024
Arch:   x86_64
Pid:    22110
CWD:    /zhome/84/5/147090/10302_NM/VBr2
Python: 3.8.5
gpaw:   /zhome/84/5/147090/venv1/gpaw/gpaw (10808453a8)
_gpaw:  /zhome/84/5/147090/venv1/gpaw/
        _gpaw.cpython-38-x86_64-linux-gnu.so (10808453a8)
ase:    /zhome/84/5/147090/venv1/ase/ase (version 3.23.0b1-c36115a2db)
numpy:  /zhome/84/5/147090/venv1/lib/python3.8/site-packages/numpy (version 1.24.4)
scipy:  /zhome/84/5/147090/venv1/lib/python3.8/site-packages/scipy (version 1.10.1)
libxc:  4.3.4
units:  Angstrom and eV
cores: 12
OpenMP: False
OMP_NUM_THREADS: 1

---
input parameters:
  kpts: 
    density: 6.0
    gamma: True
  magmoms: [[1, 0, 0], [0, 0, 0], [0, 0, 0]]
  mixer: 
    backend: 'pulay'
    beta: 0.05
    method: 'sum'
    nmaxold: 5
    weight: 100
  mode: 
    name: 'pw'
    ecut: 600
    qspiral: array([0.05, 0.  , 0.  ])
  parallel: 
    kpt: None
    domain: 1
    band: 1
    order: 'kdb'
    stridebands: False
    augment_grids: False
    sl_auto: False
    sl_default: None
    sl_diagonalize: None
    sl_inverse_cholesky: None
    sl_lcao: None
    sl_lrtddft: None
    use_elpa: False
    elpasolver: '2stage'
    buffer_size: None
    gpu: False
  symmetry: 
    point_group: False
    time_reversal: False
  xc: 
    name: 'LDA'

#                        
#                        
#                        
#                        
#                        
#              Br        
#                        
#        V               
#          Br            
#                        
#                        
#                        
#                        
#                        

atoms: [  # symbols, positions [Ang] and initial magnetic moments
  [  V, [   0.000000,    0.000000,    7.513573], [ 1.000,  0.000,  0.000]], # 0
  [ Br, [   1.984831,    1.145943,    9.027147], [ 0.000,  0.000,  0.000]], # 1
  [ Br, [  -0.000000,    2.291886,    6.000000], [ 0.000,  0.000,  0.000]]] # 2

cell: [  # Ang
#     x            y            z
  [   3.969662,    0.000000,    0.000000],
  [  -1.984831,    3.437828,    0.000000],
  [   0.000000,   -0.000000,   15.027147]]

periodic: [True      , True      , False     ]
lengths:  [  3.969662,   3.969662,  15.027147]  # Ang
angles:   [ 90.000000,  90.000000, 120.000000]

symmetry:
  number of symmetries: 1
  rotations: [
    [[ 1,  0,  0], [ 0,  1,  0], [ 0,  0,  1]]]

bz sampling:
  number of bz points: 121
  number of ibz points: 121
  monkhorst-pack size: [11, 11, 1]
  monkhorst-pack shift: [0, 0, 0]
  points and weights: [
    [[ -0.45454545,  -0.45454545,   0.00000000], 0.00826446],  # 0
    [[ -0.45454545,  -0.36363636,   0.00000000], 0.00826446],  # 1
    [[ -0.45454545,  -0.27272727,   0.00000000], 0.00826446],  # 2
    [[ -0.45454545,  -0.18181818,   0.00000000], 0.00826446],  # 3
    [[ -0.45454545,  -0.09090909,   0.00000000], 0.00826446],  # 4
    [[ -0.45454545,   0.00000000,   0.00000000], 0.00826446],  # 5
    [[ -0.45454545,   0.09090909,   0.00000000], 0.00826446],  # 6
    [[ -0.45454545,   0.18181818,   0.00000000], 0.00826446],  # 7
    [[ -0.45454545,   0.27272727,   0.00000000], 0.00826446],  # 8
    [[ -0.45454545,   0.36363636,   0.00000000], 0.00826446],  # 9
    # ...
    [[  0.45454545,   0.45454545,   0.00000000], 0.00826446]]  # 120

plane wave coefficients: 6874
cutoff: 600.0 eV

spin-components: 4  # (non-collinear spins)
bands: 42
valence electrons: 27.0
spin-degeneracy: 1
dtype: complex128

memory:
    wave functions: 1_113_974_400  # bytes  (92_831_200 per core)

parallelization:
    kpt:    12
    domain: 1
    band:   1

density:
  components: 4
  grid points: [24 24 90]
  charge: 0.0  # |e|

potential:
  grid points: [24 24 90]

species:
  V:
    name: Vanadium
    id: 7939ce69e6bb5930668dfcf9bb1979c3
    Z: 23.0
    valence: 13
    core: 10
    charge: 0.0
    file: /zhome/86/d/1666/PAW/gpaw-setups-0.9.20000/V.LDA.gz
    compensation charges: {type: gauss,
                           rc: 0.37,
                           lmax: 2}
    cutoffs: {filter: 2.14,
              core: 0.96}
    valence states:
      #              energy  rcut
      - 3s(2.00)   -69.819   1.254
      - 4s(2.00)    -4.846   1.254
      - 3p(6.00)   -43.961   1.281
      - 4p(0.00)    -1.526   1.281
      - 3d(3.00)    -5.381   1.169
      -  d          21.830   1.169
  
    # Using partial waves for V as LCAO basis

  Br:
    name: Bromine
    id: 10a25bbcb3273ec7d8d7f6fc01d2618d
    Z: 35.0
    valence: 7
    core: 28
    charge: 0.0
    file: /zhome/86/d/1666/PAW/gpaw-setups-0.9.20000/Br.LDA.gz
    compensation charges: {type: gauss,
                           rc: 0.35,
                           lmax: 2}
    cutoffs: {filter: 1.98,
              core: 2.38}
    valence states:
      #              energy  rcut
      - 4s(2.00)   -20.306   1.111
      - 4p(5.00)    -8.003   1.111
      -  s           6.906   1.111
      -  p          19.208   1.111
      -  d           0.000   1.111
  
    # Using partial waves for Br as LCAO basis

Reference energy: -167392.690611  # eV

eigensolver:
  name: 'Davidson'
  niter: 2
  converge_bands: 'occupied'
Density mixing:
  Method: sum
  Backend: pulay
  Linear mixing parameter: 0.05
  old densities: 5
  Damping of long wavelength oscillations: 100
occupation numbers:
  Fermi-Dirac:
    width: 0.1000  # eV
  

poisson solver:
  ecut: 4800.0  # eV

xc functional:
  name: None

convergence criteria:
- Maximum [total energy] change in last 3 cyles: 0.0005 eV / valence electron
- Maximum integral of absolute [dens]ity change: 0.0001 electrons / valence electron
- Maximum integral of absolute [eigenst]ate change: 4e-08 eV^2 / valence electron
maximum number of iterations: 333

#      iter     time        total  log10-change:
#                          energy   eigst   dens
# iter:   1 13:51:25   -14.576517                  +1.0,+0.0,+0.0
# iter:   2 13:51:42   -14.820984   -0.72  -1.44   +1.6,+0.0,+0.0
# iter:   3 13:51:59   -14.900332   -1.32  -1.47   +2.0,-0.0,-0.0
# iter:   4 13:52:16   -15.074840   -1.66  -1.55   +2.3,-0.0,-0.0
# iter:   5 13:52:34   -15.300100   -2.16  -1.69   +2.9,-0.0,+0.0
# iter:   6 13:52:51   -15.298761   -2.24  -2.10   +3.0,-0.0,+0.0
# iter:   7 13:53:08   -15.292441c  -2.92  -2.32   +2.9,-0.0,-0.0
# iter:   8 13:53:25   -15.292311c  -3.56  -2.69   +3.0,-0.0,+0.0
# iter:   9 13:53:43   -15.294845c  -3.22  -2.81   +3.0,-0.0,+0.0
# iter:  10 13:54:00   -15.293169c  -3.83  -2.58   +3.0,-0.0,-0.0
# iter:  11 13:54:17   -15.293171c  -4.48  -3.53   +3.0,-0.0,+0.0
# iter:  12 13:54:34   -15.293186c  -4.89  -3.60   +3.0,-0.0,+0.0
# iter:  13 13:54:51   -15.293166c  -4.82  -3.70   +3.0,-0.0,+0.0
# iter:  14 13:55:08   -15.293162c  -5.32  -4.11c  +3.0,-0.0,-0.0
# iter:  15 13:55:25   -15.293163c  -5.68  -4.34c  +3.0,-0.0,-0.0
# iter:  16 13:55:42   -15.293164c  -5.90  -4.38c  +3.0,-0.0,-0.0
# iter:  17 13:55:59   -15.293160c  -6.25  -4.52c  +3.0,-0.0,-0.0
# iter:  18 13:56:16   -15.293159c  -6.51  -4.64c  +3.0,-0.0,-0.0
# iter:  19 13:56:33   -15.293161c  -6.70  -4.60c  +3.0,-0.0,-0.0
# iter:  20 13:56:51   -15.293161c  -7.01  -4.66c  +3.0,-0.0,-0.0
# iter:  21 13:57:08   -15.293161c  -7.33  -4.96c  +3.0,-0.0,-0.0
# iter:  22 13:57:25   -15.293162c  -7.53c -4.99c  +3.0,-0.0,-0.0
scf_steps: 22
energies:  # eV
  coulomb:          -0.193204
  zero:              0.052844
  xc:              -14.799098
  external:          0.000000
  kinetic:          -0.346722
  spinorbit:         0.000000
  entropy:          -0.013966
  total:           -15.300145
  extrapolated:    -15.293162

dipole moment: [-5.259119, -9.166697, -10.044898]  # |e|*Ang

total magnetic moment: [2.995366, -0.000362, -0.000000]

local magnetic moments: [
  [ 2.664804,  0.000000, -0.000000],  # V  0
  [-0.037932,  0.008058, -0.000000],  # Br 1
  [-0.038565,  0.004058,  0.000000]]  # Br 2


Fermi level: -1.118 eV

kpt = [-0.455, -0.455, 0.000], weight = 0.008:
  Band      eig [eV]   occ [0-1]
     0       -65.848       1.000
   ...
    19        -5.157       1.000
    20        -5.145       1.000
    21        -5.092       1.000
    22        -5.052       1.000
    23        -4.953       1.000
    24        -2.158       1.000
    25        -1.622       0.994
    26        -1.592       0.991
    27        -0.487       0.002
    28        -0.388       0.001
    29        -0.135       0.000
    30         0.731       0.000
    31         0.834       0.000
    32         1.130       0.000
    33         1.192       0.000
    34         2.356       0.000
   ...
    41         5.440       0.000

kpt = [-0.455, -0.364, 0.000], weight = 0.008:
  Band      eig [eV]   occ [0-1]
     0       -65.848       1.000
   ...
    19        -5.269       1.000
    20        -5.227       1.000
    21        -5.101       1.000
    22        -5.054       1.000
    23        -4.882       1.000
    24        -1.982       1.000
    25        -1.637       0.994
    26        -1.609       0.993
    27        -0.594       0.005
    28        -0.429       0.001
    29         0.153       0.000
    30         0.676       0.000
    31         0.748       0.000
    32         1.044       0.000
    33         1.129       0.000
    34         2.754       0.000
   ...
    41         5.521       0.000

kpt = [-0.455, -0.273, 0.000], weight = 0.008:
  Band      eig [eV]   occ [0-1]
     0       -65.848       1.000
   ...
    19        -5.320       1.000
    20        -5.306       1.000
    21        -5.124       1.000
    22        -5.022       1.000
    23        -4.843       1.000
    24        -1.878       0.999
    25        -1.674       0.996
    26        -1.608       0.993
    27        -0.644       0.009
    28        -0.455       0.001
    29         0.416       0.000
    30         0.537       0.000
    31         0.694       0.000
    32         1.011       0.000
    33         1.083       0.000
    34         3.057       0.000
   ...
    41         5.525       0.000
(only showing first 3 out of 121 k-points)

Gap: 0.795 eV
Transition (v -> c):
  (s=0, k=104, n=26, [0.36, 0.00, 0.00]) -> (s=0, k=40, n=27, [-0.18, 0.18, 0.00])
# Writing to gsq-01.gpw (mode='')

---

timing:  # [seconds]
  Total: 389.007  # ━━━━━━━━━━━━━━━━━━━━━━━━━━━━━━━━━━━━━━━━━━━━━━━━━━━━━━━━━
  Init:   12.082  # ━━
  SCF:   375.660  # ━━━━━━━━━━━━━━━━━━━━━━━━━━━━━━━━━━━━━━━━━━━━━━━━━━━━━━━

Max RSS: 610.891  # MiB
