#  __  _  _
# | _ |_)|_||  |
# |__||  | ||/\| - 24.1.0

User:   s194113@n-62-28-18
Date:   Wed Apr 24 12:49:24 2024
Arch:   x86_64
Pid:    14184
CWD:    /zhome/87/8/147075/10302/10302_NM/VBr2
Python: 3.8.5
gpaw:   /zhome/87/8/147075/venv-name/gpaw/gpaw (10808453a8)
_gpaw:  /zhome/87/8/147075/venv-name/gpaw/
        _gpaw.cpython-38-x86_64-linux-gnu.so (10808453a8)
ase:    /zhome/87/8/147075/venv-name/ase/ase (version 3.23.0b1-c36115a2db)
numpy:  /zhome/87/8/147075/venv-name/lib/python3.8/site-packages/numpy (version 1.24.4)
scipy:  /zhome/87/8/147075/venv-name/lib/python3.8/site-packages/scipy (version 1.10.1)
libxc:  4.3.4
units:  Angstrom and eV
cores: 12
OpenMP: False
OMP_NUM_THREADS: 1

---
input parameters:
  kpts: 
    density: 6.0
    gamma: True
  magmoms: [[2.64162512, 0, 0], [-0.02514574, 0, 0], [-0.02514574, 0, 0]]
  mixer: 
    backend: 'pulay'
    beta: 0.05
    method: 'sum'
    nmaxold: 5
    weight: 100
  mode: 
    name: 'pw'
    ecut: 600
    qspiral: array([0.15, 0.  , 0.  ])
  parallel: 
    kpt: None
    domain: 1
    band: 1
    order: 'kdb'
    stridebands: False
    augment_grids: False
    sl_auto: False
    sl_default: None
    sl_diagonalize: None
    sl_inverse_cholesky: None
    sl_lcao: None
    sl_lrtddft: None
    use_elpa: False
    elpasolver: '2stage'
    buffer_size: None
    gpu: False
  symmetry: 
    point_group: False
    time_reversal: False
  xc: 
    name: 'LDA'

#                        
#                        
#                        
#                        
#              Br        
#                        
#                        
#        V Br            
#                        
#                        
#                        
#                        
#                        

atoms: [  # symbols, positions [Ang] and initial magnetic moments
  [  V, [   0.000000,    0.000000,    4.948555], [ 2.642,  0.000,  0.000]], # 0
  [ Br, [   1.920224,    1.108642,    6.397111], [-0.025,  0.000,  0.000]], # 1
  [ Br, [   0.000000,    2.217284,    3.500000], [-0.025,  0.000,  0.000]]] # 2

cell: [  # Ang
#     x            y            z
  [   3.840448,    0.000000,    0.000000],
  [  -1.920224,    3.325925,    0.000000],
  [   0.000000,    0.000000,    9.897111]]

periodic: [True      , True      , False     ]
lengths:  [  3.840448,   3.840448,   9.897111]  # Ang
angles:   [ 90.000000,  90.000000, 120.000000]

symmetry:
  number of symmetries: 1
  rotations: [
    [[ 1,  0,  0], [ 0,  1,  0], [ 0,  0,  1]]]

bz sampling:
  number of bz points: 144
  number of ibz points: 144
  monkhorst-pack size: [12, 12, 1]
  monkhorst-pack shift: [0.041666666666666664, 0.041666666666666664, 0.0]
  points and weights: [
    [[ -0.41666667,  -0.41666667,   0.00000000], 0.00694444],  # 0
    [[ -0.41666667,  -0.33333333,   0.00000000], 0.00694444],  # 1
    [[ -0.41666667,  -0.25000000,   0.00000000], 0.00694444],  # 2
    [[ -0.41666667,  -0.16666667,   0.00000000], 0.00694444],  # 3
    [[ -0.41666667,  -0.08333333,   0.00000000], 0.00694444],  # 4
    [[ -0.41666667,  -0.00000000,   0.00000000], 0.00694444],  # 5
    [[ -0.41666667,   0.08333333,   0.00000000], 0.00694444],  # 6
    [[ -0.41666667,   0.16666667,   0.00000000], 0.00694444],  # 7
    [[ -0.41666667,   0.25000000,   0.00000000], 0.00694444],  # 8
    [[ -0.41666667,   0.33333333,   0.00000000], 0.00694444],  # 9
    # ...
    [[  0.50000000,   0.50000000,   0.00000000], 0.00694444]]  # 143

plane wave coefficients: 4241
cutoff: 600.0 eV

spin-components: 4  # (non-collinear spins)
bands: 42
valence electrons: 27.0
spin-degeneracy: 1
dtype: complex128

memory:
    wave functions: 815_560_704  # bytes  (67_963_392 per core)

parallelization:
    kpt:    12
    domain: 1
    band:   1

density:
  components: 4
  grid points: [24 24 56]
  charge: 0.0  # |e|

potential:
  grid points: [24 24 56]

species:
  V:
    name: Vanadium
    id: 7939ce69e6bb5930668dfcf9bb1979c3
    Z: 23.0
    valence: 13
    core: 10
    charge: 0.0
    file: /zhome/86/d/1666/PAW/gpaw-setups-0.9.20000/V.LDA.gz
    compensation charges: {type: gauss,
                           rc: 0.37,
                           lmax: 2}
    cutoffs: {filter: 2.14,
              core: 0.96}
    valence states:
      #              energy  rcut
      - 3s(2.00)   -69.819   1.254
      - 4s(2.00)    -4.846   1.254
      - 3p(6.00)   -43.961   1.281
      - 4p(0.00)    -1.526   1.281
      - 3d(3.00)    -5.381   1.169
      -  d          21.830   1.169
  
    # Using partial waves for V as LCAO basis

  Br:
    name: Bromine
    id: 10a25bbcb3273ec7d8d7f6fc01d2618d
    Z: 35.0
    valence: 7
    core: 28
    charge: 0.0
    file: /zhome/86/d/1666/PAW/gpaw-setups-0.9.20000/Br.LDA.gz
    compensation charges: {type: gauss,
                           rc: 0.35,
                           lmax: 2}
    cutoffs: {filter: 1.98,
              core: 2.38}
    valence states:
      #              energy  rcut
      - 4s(2.00)   -20.306   1.111
      - 4p(5.00)    -8.003   1.111
      -  s           6.906   1.111
      -  p          19.208   1.111
      -  d           0.000   1.111
  
    # Using partial waves for Br as LCAO basis

Reference energy: -167392.690611  # eV

eigensolver:
  name: 'Davidson'
  niter: 2
  converge_bands: 'occupied'
Density mixing:
  Method: sum
  Backend: pulay
  Linear mixing parameter: 0.05
  old densities: 5
  Damping of long wavelength oscillations: 100
occupation numbers:
  Fermi-Dirac:
    width: 0.1000  # eV
  

poisson solver:
  ecut: 4800.0  # eV

xc functional:
  name: None

convergence criteria:
- Maximum [total energy] change in last 3 cyles: 0.0005 eV / valence electron
- Maximum integral of absolute [dens]ity change: 0.0001 electrons / valence electron
- Maximum integral of absolute [eigenst]ate change: 4e-08 eV^2 / valence electron
maximum number of iterations: 333

#      iter     time        total  log10-change:
#                          energy   eigst   dens
# iter:   1 12:49:48   -15.732173                  +2.6,+0.0,+0.0
# iter:   2 12:50:01   -15.738069   -0.57  -1.40   +2.7,+0.0,+0.0
# iter:   3 12:50:14   -15.601881   -1.15  -1.44   +2.8,+0.0,-0.0
# iter:   4 12:50:28   -15.622973   -1.49  -1.56   +2.9,-0.0,+0.0
# iter:   5 12:50:41   -15.661928   -2.05  -1.68   +3.0,-0.0,+0.0
# iter:   6 12:50:54   -15.651113   -2.72  -2.15   +3.0,-0.0,-0.0
# iter:   7 12:51:07   -15.651451c  -2.49  -2.25   +2.9,-0.0,-0.0
# iter:   8 12:51:21   -15.646545c  -3.40  -2.43   +2.9,-0.0,+0.0
# iter:   9 12:51:34   -15.646577c  -4.38  -2.82   +2.9,-0.0,+0.0
# iter:  10 12:51:47   -15.646457c  -4.00  -2.82   +2.9,-0.0,+0.0
# iter:  11 12:52:00   -15.646502c  -4.64  -3.40   +2.9,-0.0,+0.0
# iter:  12 12:52:13   -15.646482c  -5.46  -3.66   +2.9,-0.0,+0.0
# iter:  13 12:52:26   -15.646466c  -5.78  -3.72   +2.9,-0.0,+0.0
# iter:  14 12:52:39   -15.646463c  -6.03  -3.79   +2.9,-0.0,+0.0
# iter:  15 12:52:53   -15.646455c  -6.23  -3.84   +2.9,-0.0,+0.0
# iter:  16 12:53:05   -15.646453c  -6.80  -3.89   +2.9,-0.0,+0.0
# iter:  17 12:53:18   -15.646453c  -5.95  -3.92   +2.9,-0.0,+0.0
# iter:  18 12:53:31   -15.646453c  -6.87  -4.29c  +2.9,-0.0,+0.0
# iter:  19 12:53:44   -15.646454c  -7.60c -4.60c  +2.9,-0.0,+0.0
scf_steps: 19
energies:  # eV
  coulomb:          -6.030539
  zero:              0.038105
  xc:              -16.643601
  external:          0.000000
  kinetic:           6.993419
  spinorbit:         0.000000
  entropy:          -0.007675
  total:           -15.650291
  extrapolated:    -15.646454

dipole moment: [-4.985877, -8.805675, -6.566613]  # |e|*Ang

total magnetic moment: [2.943791, -0.001232, 0.000000]

local magnetic moments: [
  [ 2.611366, -0.000055,  0.000000],  # V  0
  [-0.020795,  0.015004,  0.000000],  # Br 1
  [-0.024359,  0.008009,  0.000000]]  # Br 2


Fermi level: 1.290 eV

kpt = [-0.417, -0.417, 0.000], weight = 0.007:
  Band      eig [eV]   occ [0-1]
     0       -63.472       1.000
   ...
    19        -3.267       1.000
    20        -3.186       1.000
    21        -3.136       1.000
    22        -2.996       1.000
    23        -2.902       1.000
    24         0.231       1.000
    25         0.705       0.997
    26         0.721       0.997
    27         1.944       0.001
    28         2.058       0.000
    29         2.330       0.000
    30         2.983       0.000
    31         3.029       0.000
    32         3.467       0.000
    33         3.615       0.000
    34         5.140       0.000
   ...
    41         7.756       0.000

kpt = [-0.417, -0.333, 0.000], weight = 0.007:
  Band      eig [eV]   occ [0-1]
     0       -63.472       1.000
   ...
    19        -3.344       1.000
    20        -3.293       1.000
    21        -3.089       1.000
    22        -3.050       1.000
    23        -2.827       1.000
    24         0.382       1.000
    25         0.676       0.998
    26         0.719       0.997
    27         1.883       0.003
    28         2.015       0.001
    29         2.583       0.000
    30         2.899       0.000
    31         2.985       0.000
    32         3.384       0.000
    33         3.517       0.000
    34         5.589       0.000
   ...
    41         8.126       0.000

kpt = [-0.417, -0.250, 0.000], weight = 0.007:
  Band      eig [eV]   occ [0-1]
     0       -63.472       1.000
   ...
    19        -3.361       1.000
    20        -3.332       1.000
    21        -3.158       1.000
    22        -2.985       1.000
    23        -2.794       1.000
    24         0.409       1.000
    25         0.673       0.998
    26         0.715       0.997
    27         1.840       0.004
    28         2.033       0.001
    29         2.582       0.000
    30         2.881       0.000
    31         2.983       0.000
    32         3.360       0.000
    33         3.527       0.000
    34         5.787       0.000
   ...
    41         7.941       0.000
(only showing first 3 out of 144 k-points)

Gap: 0.934 eV
Transition (v -> c):
  (s=0, k=85, n=26, [0.17, -0.33, 0.00]) -> (s=0, k=44, n=27, [-0.17, 0.25, 0.00])
# Writing to Conv_V/Conv_V_3.5/gsq-03.gpw (mode='')

---

timing:  # [seconds]
  Total: 261.329  # ━━━━━━━━━━━━━━━━━━━━━━━━━━━━━━━━━━━━━━━━━━━━━━━━━━━━━━━━━
  Init:   11.034  # ━━╸
  SCF:   249.286  # ━━━━━━━━━━━━━━━━━━━━━━━━━━━━━━━━━━━━━━━━━━━━━━━━━━━━━━╸

Max RSS: 375.793  # MiB
