#  __  _  _
# | _ |_)|_||  |
# |__||  | ||/\| - 24.1.0

User:   s194113@n-62-29-29
Date:   Wed Apr 24 22:25:14 2024
Arch:   x86_64
Pid:    6511
CWD:    /zhome/87/8/147075/10302/10302_NM/NiI2
Python: 3.8.5
gpaw:   /zhome/87/8/147075/venv-name/gpaw/gpaw (10808453a8)
_gpaw:  /zhome/87/8/147075/venv-name/gpaw/
        _gpaw.cpython-38-x86_64-linux-gnu.so (10808453a8)
ase:    /zhome/87/8/147075/venv-name/ase/ase (version 3.23.0b1-c36115a2db)
numpy:  /zhome/87/8/147075/venv-name/lib/python3.8/site-packages/numpy (version 1.24.4)
scipy:  /zhome/87/8/147075/venv-name/lib/python3.8/site-packages/scipy (version 1.10.1)
libxc:  4.3.4
units:  Angstrom and eV
cores: 12
OpenMP: False
OMP_NUM_THREADS: 1

---
input parameters:
  kpts: 
    density: 6.0
    gamma: True
  magmoms: [[1.28782608, 0, 0], [0.19870794, 0, 0], [0.19870794, 0, 0]]
  mixer: 
    backend: 'pulay'
    beta: 0.05
    method: 'sum'
    nmaxold: 5
    weight: 100
  mode: 
    name: 'pw'
    ecut: 100.0
    qspiral: array([0.1, 0. , 0. ])
  parallel: 
    kpt: None
    domain: 1
    band: 1
    order: 'kdb'
    stridebands: False
    augment_grids: False
    sl_auto: False
    sl_default: None
    sl_diagonalize: None
    sl_inverse_cholesky: None
    sl_lcao: None
    sl_lrtddft: None
    use_elpa: False
    elpasolver: '2stage'
    buffer_size: None
    gpu: False
  symmetry: 
    point_group: False
    time_reversal: False
  xc: 
    name: 'LDA'

#                        
#                        
#                        
#                        
#                        
#              I         
#                        
#        Ni              
#          I             
#                        
#                        
#                        
#                        
#                        

atoms: [  # symbols, positions [Ang] and initial magnetic moments
  [ Ni, [   0.000000,    0.000000,    7.513573], [ 1.288,  0.000,  0.000]], # 0
  [  I, [   1.984831,    1.145943,    9.027147], [ 0.199,  0.000,  0.000]], # 1
  [  I, [   0.000000,    2.291885,    6.000000], [ 0.199,  0.000,  0.000]]] # 2

cell: [  # Ang
#     x            y            z
  [   3.969662,    0.000000,    0.000000],
  [  -1.984831,    3.437828,    0.000000],
  [   0.000000,    0.000000,   15.027147]]

periodic: [True      , True      , False     ]
lengths:  [  3.969662,   3.969662,  15.027147]  # Ang
angles:   [ 90.000000,  90.000000, 120.000000]

symmetry:
  number of symmetries: 1
  rotations: [
    [[ 1,  0,  0], [ 0,  1,  0], [ 0,  0,  1]]]

bz sampling:
  number of bz points: 121
  number of ibz points: 121
  monkhorst-pack size: [11, 11, 1]
  monkhorst-pack shift: [0, 0, 0]
  points and weights: [
    [[ -0.45454545,  -0.45454545,   0.00000000], 0.00826446],  # 0
    [[ -0.45454545,  -0.36363636,   0.00000000], 0.00826446],  # 1
    [[ -0.45454545,  -0.27272727,   0.00000000], 0.00826446],  # 2
    [[ -0.45454545,  -0.18181818,   0.00000000], 0.00826446],  # 3
    [[ -0.45454545,  -0.09090909,   0.00000000], 0.00826446],  # 4
    [[ -0.45454545,   0.00000000,   0.00000000], 0.00826446],  # 5
    [[ -0.45454545,   0.09090909,   0.00000000], 0.00826446],  # 6
    [[ -0.45454545,   0.18181818,   0.00000000], 0.00826446],  # 7
    [[ -0.45454545,   0.27272727,   0.00000000], 0.00826446],  # 8
    [[ -0.45454545,   0.36363636,   0.00000000], 0.00826446],  # 9
    # ...
    [[  0.45454545,   0.45454545,   0.00000000], 0.00826446]]  # 120

plane wave coefficients: 487
cutoff: 100.0 eV

spin-components: 4  # (non-collinear spins)
bands: 40
valence electrons: 30.0
spin-degeneracy: 1
dtype: complex128

memory:
    wave functions: 72_483_840  # bytes  (6_040_320 per core)

parallelization:
    kpt:    12
    domain: 1
    band:   1

density:
  components: 4
  grid points: [10 10 35]
  charge: 0.0  # |e|

potential:
  grid points: [10 10 35]

species:
  Ni:
    name: Nickel
    id: 1802175e8de9ea26d9f4394ec1a7d564
    Z: 28.0
    valence: 16
    core: 12
    charge: 0.0
    file: /zhome/86/d/1666/PAW/gpaw-setups-0.9.20000/Ni.LDA.gz
    compensation charges: {type: gauss,
                           rc: 0.36,
                           lmax: 2}
    cutoffs: {filter: 2.14,
              core: 1.98}
    valence states:
      #              energy  rcut
      - 4s(2.00)    -5.858   1.164
      - 3p(6.00)   -71.266   1.207
      - 4p(0.00)    -1.338   1.207
      - 3d(8.00)    -9.141   1.138
      -  s          21.353   1.164
      -  d          18.071   1.138
  
    # Using partial waves for Ni as LCAO basis

  I:
    name: Iodine
    id: b559721c0c096a7b4c8fc0e0f4de5cf4
    Z: 53.0
    valence: 7
    core: 46
    charge: 0.0
    file: /zhome/86/d/1666/PAW/gpaw-setups-0.9.20000/I.LDA.gz
    compensation charges: {type: gauss,
                           rc: 0.37,
                           lmax: 2}
    cutoffs: {filter: 2.06,
              core: 2.90}
    valence states:
      #              energy  rcut
      - 5s(2.00)   -17.626   1.164
      - 5p(5.00)    -7.241   1.164
      -  s           9.585   1.164
      -  p          19.970   1.164
      -  d           0.000   1.164
  
    # Using partial waves for I as LCAO basis

Reference energy: -428067.566327  # eV

eigensolver:
  name: 'Davidson'
  niter: 2
  converge_bands: 'occupied'
Density mixing:
  Method: sum
  Backend: pulay
  Linear mixing parameter: 0.05
  old densities: 5
  Damping of long wavelength oscillations: 100
occupation numbers:
  Fermi-Dirac:
    width: 0.1000  # eV
  

poisson solver:
  ecut: 800.0  # eV

xc functional:
  name: None

convergence criteria:
- Maximum [total energy] change in last 3 cyles: 0.0005 eV / valence electron
- Maximum integral of absolute [dens]ity change: 0.0001 electrons / valence electron
- Maximum integral of absolute [eigenst]ate change: 4e-08 eV^2 / valence electron
maximum number of iterations: 333

#      iter     time        total  log10-change:
#                          energy   eigst   dens
# iter:   1 22:25:19    56.570592                  +1.7,+0.0,+0.0
# iter:   2 22:25:22    67.839852   -0.53  -0.88   +2.3,-0.0,-0.0
# iter:   3 22:25:25    74.733069   -0.66  -1.05   +2.8,-0.0,+0.0
# iter:   4 22:25:28    79.394371   -0.60  -1.13   +2.0,-0.0,-0.0
# iter:   5 22:25:31    79.668833   -1.34  -0.97   +1.1,-0.0,-0.0
# iter:   6 22:25:34    81.156506   -1.65  -1.01   +1.0,-0.0,+0.0
# iter:   7 22:25:37    79.812660   -1.33  -1.41   +1.3,-0.0,-0.0
# iter:   8 22:25:40    80.499474   -1.99  -1.17   +0.9,-0.0,-0.0
# iter:   9 22:25:42    80.630190   -2.36  -1.29   +0.9,-0.0,+0.0
# iter:  10 22:25:45    81.592211   -2.23  -1.32   +0.9,-0.0,-0.0
# iter:  11 22:25:48    81.324242   -2.67  -1.80   +1.1,-0.0,-0.0
# iter:  12 22:25:51    81.069778   -3.07  -1.47   +1.0,-0.0,-0.0
# iter:  13 22:25:54    81.586852   -2.75  -1.37   +0.8,+0.0,-0.0
# iter:  14 22:25:57    81.580014   -3.88  -2.06   +0.9,+0.0,-0.0
# iter:  15 22:26:00    81.569886   -4.07  -2.12   +0.8,+0.0,+0.0
# iter:  16 22:26:03    81.568021c  -3.61  -2.12   +0.7,+0.0,-0.0
# iter:  17 22:26:06    81.578908c  -4.29  -2.00   +0.7,+0.0,-0.0
# iter:  18 22:26:09    81.580348c  -4.53  -2.29   +0.7,+0.0,+0.0
# iter:  19 22:26:12    81.580522c  -4.29  -2.39   +0.7,+0.0,+0.0
# iter:  20 22:26:15    81.580209c  -4.93  -2.50   +0.7,+0.0,+0.0
# iter:  21 22:26:18    81.577267c  -4.91  -2.55   +0.6,+0.0,+0.0
# iter:  22 22:26:21    81.577326c  -5.48  -2.84   +0.6,+0.0,+0.0
# iter:  23 22:26:24    81.577261c  -4.99  -2.91   +0.5,+0.0,+0.0
# iter:  24 22:26:27    81.577132c  -5.79  -3.27   +0.5,+0.0,+0.0
# iter:  25 22:26:30    81.575952c  -5.67  -3.31   +0.5,+0.0,+0.0
# iter:  26 22:26:33    81.575786c  -6.37  -3.51   +0.4,+0.0,-0.0
# iter:  27 22:26:35    81.574881c  -5.87  -3.60   +0.4,+0.0,+0.0
# iter:  28 22:26:38    81.574803c  -6.81  -3.66   +0.4,+0.0,-0.0
# iter:  29 22:26:41    81.574891c  -6.91  -3.80   +0.4,+0.0,+0.0
# iter:  30 22:26:44    81.573907c  -5.75  -3.90   +0.3,+0.0,+0.0
# iter:  31 22:26:47    81.574004c  -6.57  -3.85   +0.3,+0.0,+0.0
# iter:  32 22:26:50    81.573656c  -6.50  -4.04c  +0.3,+0.0,+0.0
# iter:  33 22:26:53    81.573568c  -7.12  -4.25c  +0.3,+0.0,+0.0
# iter:  34 22:26:56    81.573365c  -6.81  -4.39c  +0.2,+0.0,+0.0
# iter:  35 22:26:59    81.573351c  -7.46c -4.50c  +0.2,+0.0,+0.0
scf_steps: 35
energies:  # eV
  coulomb:         330.836804
  zero:              1.194111
  xc:               17.161962
  external:          0.000000
  kinetic:        -267.517819
  spinorbit:         0.000000
  entropy:          -0.203414
  total:            81.471644
  extrapolated:     81.573351

dipole moment: [-3.344058, -5.790053, -0.853055]  # |e|*Ang

total magnetic moment: [0.236511, 0.000412, 0.000000]

local magnetic moments: [
  [ 0.190193, -0.000226,  0.000000],  # Ni 0
  [ 0.013738, -0.006131, -0.000000],  # I  1
  [ 0.014710, -0.003151, -0.000000]]  # I  2


Fermi level: -2.815 eV

kpt = [-0.455, -0.455, 0.000], weight = 0.008:
  Band      eig [eV]   occ [0-1]
     0       -80.010       1.000
   ...
    24        -4.130       1.000
    25        -3.994       1.000
    26        -3.718       1.000
    27        -3.566       0.999
    28        -3.157       0.968
    29        -3.108       0.950
    30        -3.050       0.913
    31        -2.826       0.527
    32         0.252       0.000
    33         0.768       0.000
    34         3.144       0.000
    35         3.673       0.000
    36         3.920       0.000
    37         4.083       0.000
    38         4.202       0.000
    39         4.288       0.000

kpt = [-0.455, -0.364, 0.000], weight = 0.008:
  Band      eig [eV]   occ [0-1]
     0       -80.027       1.000
   ...
    24        -3.764       1.000
    25        -3.649       1.000
    26        -3.543       0.999
    27        -3.405       0.997
    28        -3.251       0.987
    29        -3.175       0.974
    30        -3.063       0.923
    31        -2.901       0.704
    32         0.798       0.000
    33         1.156       0.000
    34         3.757       0.000
    35         4.075       0.000
    36         4.092       0.000
    37         4.219       0.000
    38         4.443       0.000
    39         4.886       0.000

kpt = [-0.455, -0.273, 0.000], weight = 0.008:
  Band      eig [eV]   occ [0-1]
     0       -80.014       1.000
   ...
    24        -3.938       1.000
    25        -3.727       1.000
    26        -3.636       1.000
    27        -3.602       1.000
    28        -3.411       0.997
    29        -3.340       0.995
    30        -3.098       0.944
    31        -2.916       0.733
    32         1.221       0.000
    33         1.290       0.000
    34         3.648       0.000
    35         4.013       0.000
    36         4.583       0.000
    37         4.765       0.000
    38         5.064       0.000
    39         5.331       0.000
(only showing first 3 out of 121 k-points)

No gap
# Writing to Conv_E/Conv_E_100.0/gsq-02.gpw (mode='')

---

timing:  # [seconds]
  Total: 104.783  # ━━━━━━━━━━━━━━━━━━━━━━━━━━━━━━━━━━━━━━━━━━━━━━━━━━━━━━━━━
  Init:    1.517  # ━
  SCF:   102.874  # ━━━━━━━━━━━━━━━━━━━━━━━━━━━━━━━━━━━━━━━━━━━━━━━━━━━━━━━━

Max RSS: 192.355  # MiB
