#  __  _  _
# | _ |_)|_||  |
# |__||  | ||/\| - 24.1.0

User:   s194113@n-62-29-29
Date:   Wed Apr 24 22:22:14 2024
Arch:   x86_64
Pid:    6511
CWD:    /zhome/87/8/147075/10302/10302_NM/NiI2
Python: 3.8.5
gpaw:   /zhome/87/8/147075/venv-name/gpaw/gpaw (10808453a8)
_gpaw:  /zhome/87/8/147075/venv-name/gpaw/
        _gpaw.cpython-38-x86_64-linux-gnu.so (10808453a8)
ase:    /zhome/87/8/147075/venv-name/ase/ase (version 3.23.0b1-c36115a2db)
numpy:  /zhome/87/8/147075/venv-name/lib/python3.8/site-packages/numpy (version 1.24.4)
scipy:  /zhome/87/8/147075/venv-name/lib/python3.8/site-packages/scipy (version 1.10.1)
libxc:  4.3.4
units:  Angstrom and eV
cores: 12
OpenMP: False
OMP_NUM_THREADS: 1

---
input parameters:
  kpts: 
    density: 6.0
    gamma: True
  magmoms: [[1.28782608, 0, 0], [0.19870794, 0, 0], [0.19870794, 0, 0]]
  mixer: 
    backend: 'pulay'
    beta: 0.05
    method: 'sum'
    nmaxold: 5
    weight: 100
  mode: 
    name: 'pw'
    ecut: 100.0
    qspiral: array([0., 0., 0.])
  parallel: 
    kpt: None
    domain: 1
    band: 1
    order: 'kdb'
    stridebands: False
    augment_grids: False
    sl_auto: False
    sl_default: None
    sl_diagonalize: None
    sl_inverse_cholesky: None
    sl_lcao: None
    sl_lrtddft: None
    use_elpa: False
    elpasolver: '2stage'
    buffer_size: None
    gpu: False
  symmetry: 
    point_group: False
    time_reversal: False
  xc: 
    name: 'LDA'

#                        
#                        
#                        
#                        
#                        
#              I         
#                        
#        Ni              
#          I             
#                        
#                        
#                        
#                        
#                        

atoms: [  # symbols, positions [Ang] and initial magnetic moments
  [ Ni, [   0.000000,    0.000000,    7.513573], [ 1.288,  0.000,  0.000]], # 0
  [  I, [   1.984831,    1.145943,    9.027147], [ 0.199,  0.000,  0.000]], # 1
  [  I, [   0.000000,    2.291885,    6.000000], [ 0.199,  0.000,  0.000]]] # 2

cell: [  # Ang
#     x            y            z
  [   3.969662,    0.000000,    0.000000],
  [  -1.984831,    3.437828,    0.000000],
  [   0.000000,    0.000000,   15.027147]]

periodic: [True      , True      , False     ]
lengths:  [  3.969662,   3.969662,  15.027147]  # Ang
angles:   [ 90.000000,  90.000000, 120.000000]

symmetry:
  number of symmetries: 1
  rotations: [
    [[ 1,  0,  0], [ 0,  1,  0], [ 0,  0,  1]]]

bz sampling:
  number of bz points: 121
  number of ibz points: 121
  monkhorst-pack size: [11, 11, 1]
  monkhorst-pack shift: [0, 0, 0]
  points and weights: [
    [[ -0.45454545,  -0.45454545,   0.00000000], 0.00826446],  # 0
    [[ -0.45454545,  -0.36363636,   0.00000000], 0.00826446],  # 1
    [[ -0.45454545,  -0.27272727,   0.00000000], 0.00826446],  # 2
    [[ -0.45454545,  -0.18181818,   0.00000000], 0.00826446],  # 3
    [[ -0.45454545,  -0.09090909,   0.00000000], 0.00826446],  # 4
    [[ -0.45454545,   0.00000000,   0.00000000], 0.00826446],  # 5
    [[ -0.45454545,   0.09090909,   0.00000000], 0.00826446],  # 6
    [[ -0.45454545,   0.18181818,   0.00000000], 0.00826446],  # 7
    [[ -0.45454545,   0.27272727,   0.00000000], 0.00826446],  # 8
    [[ -0.45454545,   0.36363636,   0.00000000], 0.00826446],  # 9
    # ...
    [[  0.45454545,   0.45454545,   0.00000000], 0.00826446]]  # 120

plane wave coefficients: 487
cutoff: 100.0 eV

spin-components: 4  # (non-collinear spins)
bands: 40
valence electrons: 30.0
spin-degeneracy: 1
dtype: complex128

memory:
    wave functions: 72_483_840  # bytes  (6_040_320 per core)

parallelization:
    kpt:    12
    domain: 1
    band:   1

density:
  components: 4
  grid points: [10 10 35]
  charge: 0.0  # |e|

potential:
  grid points: [10 10 35]

species:
  Ni:
    name: Nickel
    id: 1802175e8de9ea26d9f4394ec1a7d564
    Z: 28.0
    valence: 16
    core: 12
    charge: 0.0
    file: /zhome/86/d/1666/PAW/gpaw-setups-0.9.20000/Ni.LDA.gz
    compensation charges: {type: gauss,
                           rc: 0.36,
                           lmax: 2}
    cutoffs: {filter: 2.14,
              core: 1.98}
    valence states:
      #              energy  rcut
      - 4s(2.00)    -5.858   1.164
      - 3p(6.00)   -71.266   1.207
      - 4p(0.00)    -1.338   1.207
      - 3d(8.00)    -9.141   1.138
      -  s          21.353   1.164
      -  d          18.071   1.138
  
    # Using partial waves for Ni as LCAO basis

  I:
    name: Iodine
    id: b559721c0c096a7b4c8fc0e0f4de5cf4
    Z: 53.0
    valence: 7
    core: 46
    charge: 0.0
    file: /zhome/86/d/1666/PAW/gpaw-setups-0.9.20000/I.LDA.gz
    compensation charges: {type: gauss,
                           rc: 0.37,
                           lmax: 2}
    cutoffs: {filter: 2.06,
              core: 2.90}
    valence states:
      #              energy  rcut
      - 5s(2.00)   -17.626   1.164
      - 5p(5.00)    -7.241   1.164
      -  s           9.585   1.164
      -  p          19.970   1.164
      -  d           0.000   1.164
  
    # Using partial waves for I as LCAO basis

Reference energy: -428067.566327  # eV

eigensolver:
  name: 'Davidson'
  niter: 2
  converge_bands: 'occupied'
Density mixing:
  Method: sum
  Backend: pulay
  Linear mixing parameter: 0.05
  old densities: 5
  Damping of long wavelength oscillations: 100
occupation numbers:
  Fermi-Dirac:
    width: 0.1000  # eV
  

poisson solver:
  ecut: 800.0  # eV

xc functional:
  name: None

convergence criteria:
- Maximum [total energy] change in last 3 cyles: 0.0005 eV / valence electron
- Maximum integral of absolute [dens]ity change: 0.0001 electrons / valence electron
- Maximum integral of absolute [eigenst]ate change: 4e-08 eV^2 / valence electron
maximum number of iterations: 333

#      iter     time        total  log10-change:
#                          energy   eigst   dens
# iter:   1 22:22:19    56.446243                  +1.7,+0.0,+0.0
# iter:   2 22:22:22    67.652382   -0.58  -0.88   +2.3,-0.0,+0.0
# iter:   3 22:22:25    74.400493   -0.70  -1.06   +2.7,-0.0,+0.0
# iter:   4 22:22:28    78.860204   -0.57  -1.13   +2.0,-0.0,+0.0
# iter:   5 22:22:31    79.061459   -1.34  -0.96   +1.1,-0.0,+0.0
# iter:   6 22:22:34    80.957794   -1.66  -1.00   +0.9,+0.0,+0.0
# iter:   7 22:22:37    80.719751   -1.65  -1.40   +1.2,-0.0,+0.0
# iter:   8 22:22:40    81.277295   -1.96  -1.23   +0.9,+0.0,-0.0
# iter:   9 22:22:43    81.178250   -2.44  -1.53   +1.0,+0.0,-0.0
# iter:  10 22:22:45    81.163473   -2.84  -1.52   +0.9,-0.0,-0.0
# iter:  11 22:22:48    81.109748   -3.08  -1.53   +0.8,+0.0,-0.0
# iter:  12 22:22:51    81.347228   -3.02  -1.51   +0.7,+0.0,-0.0
# iter:  13 22:22:54    81.347055   -3.81  -2.26   +0.7,+0.0,-0.0
# iter:  14 22:22:57    81.346213c  -4.25  -2.60   +0.7,+0.0,-0.0
# iter:  15 22:23:00    81.345029c  -4.37  -2.66   +0.6,+0.0,+0.0
# iter:  16 22:23:03    81.344750c  -4.80  -2.75   +0.6,+0.0,-0.0
# iter:  17 22:23:06    81.343866c  -4.95  -2.81   +0.6,+0.0,+0.0
# iter:  18 22:23:09    81.343348c  -5.31  -2.75   +0.5,-0.0,+0.0
# iter:  19 22:23:12    81.342922c  -5.74  -3.00   +0.5,-0.0,-0.0
# iter:  20 22:23:15    81.342296c  -5.61  -3.11   +0.4,-0.0,-0.0
# iter:  21 22:23:18    81.342092c  -6.08  -3.37   +0.4,-0.0,+0.0
# iter:  22 22:23:21    81.341578c  -6.20  -3.47   +0.4,-0.0,+0.0
# iter:  23 22:23:24    81.341406c  -6.71  -3.65   +0.4,-0.0,+0.0
# iter:  24 22:23:26    81.341276c  -7.01  -3.79   +0.4,-0.0,+0.0
# iter:  25 22:23:29    81.341050c  -6.92  -3.84   +0.3,-0.0,+0.0
# iter:  26 22:23:32    81.340748c  -6.67  -3.91   +0.3,+0.0,-0.0
# iter:  27 22:23:35    81.340699c  -7.43c -3.96   +0.3,+0.0,-0.0
# iter:  28 22:23:38    81.340607c  -7.62c -3.98   +0.3,-0.0,-0.0
# iter:  29 22:23:41    81.340455c  -7.26  -4.04c  +0.3,-0.0,-0.0
# iter:  30 22:23:44    81.340345c  -7.46c -4.09c  +0.3,-0.0,-0.0
scf_steps: 30
energies:  # eV
  coulomb:         330.099378
  zero:              1.192553
  xc:               17.074878
  external:          0.000000
  kinetic:        -266.922849
  spinorbit:         0.000000
  entropy:          -0.207231
  total:            81.236730
  extrapolated:     81.340345

dipole moment: [-3.357669, -5.815653, -1.010074]  # |e|*Ang

total magnetic moment: [0.276878, -0.000000, -0.000000]

local magnetic moments: [
  [ 0.222823, -0.000000, -0.000000],  # Ni 0
  [ 0.018665, -0.000000,  0.000000],  # I  1
  [ 0.018665,  0.000000,  0.000000]]  # I  2


Fermi level: -2.813 eV

kpt = [-0.455, -0.455, 0.000], weight = 0.008:
  Band      eig [eV]   occ [0-1]
     0       -79.975       1.000
   ...
    24        -4.137       1.000
    25        -3.972       1.000
    26        -3.724       1.000
    27        -3.556       0.999
    28        -3.100       0.947
    29        -3.067       0.927
    30        -2.985       0.849
    31        -2.941       0.784
    32         0.451       0.000
    33         0.493       0.000
    34         3.460       0.000
    35         3.481       0.000
    36         3.805       0.000
    37         3.824       0.000
    38         4.226       0.000
    39         4.246       0.000

kpt = [-0.455, -0.364, 0.000], weight = 0.008:
  Band      eig [eV]   occ [0-1]
     0       -80.006       1.000
   ...
    24        -3.782       1.000
    25        -3.657       1.000
    26        -3.538       0.999
    27        -3.376       0.996
    28        -3.260       0.989
    29        -3.204       0.980
    30        -3.005       0.873
    31        -2.956       0.807
    32         0.997       0.000
    33         1.039       0.000
    34         3.991       0.000
    35         4.014       0.000
    36         4.333       0.000
    37         4.355       0.000
    38         4.516       0.000
    39         4.537       0.000

kpt = [-0.455, -0.273, 0.000], weight = 0.008:
  Band      eig [eV]   occ [0-1]
     0       -79.969       1.000
   ...
    24        -3.851       1.000
    25        -3.703       1.000
    26        -3.687       1.000
    27        -3.619       1.000
    28        -3.453       0.998
    29        -3.340       0.995
    30        -3.019       0.887
    31        -2.983       0.846
    32         1.252       0.000
    33         1.295       0.000
    34         3.774       0.000
    35         3.797       0.000
    36         4.836       0.000
    37         4.860       0.000
    38         5.573       0.000
    39         5.593       0.000
(only showing first 3 out of 121 k-points)

No gap
# Writing to Conv_E/Conv_E_100.0/gsq-00.gpw (mode='')

---

timing:  # [seconds]
  Total: 90.879  # ━━━━━━━━━━━━━━━━━━━━━━━━━━━━━━━━━━━━━━━━━━━━━━━━━━━━━━━━━━
  Init:   2.049  # ━╸
  SCF:   88.161  # ━━━━━━━━━━━━━━━━━━━━━━━━━━━━━━━━━━━━━━━━━━━━━━━━━━━━━━━━╸

Max RSS: 157.223  # MiB
