#  __  _  _
# | _ |_)|_||  |
# |__||  | ||/\| - 24.1.0

User:   s194113@n-62-29-31
Date:   Wed Apr 24 12:47:15 2024
Arch:   x86_64
Pid:    3554
CWD:    /zhome/87/8/147075/10302/10302_NM/VBr2
Python: 3.8.5
gpaw:   /zhome/87/8/147075/venv-name/gpaw/gpaw (10808453a8)
_gpaw:  /zhome/87/8/147075/venv-name/gpaw/
        _gpaw.cpython-38-x86_64-linux-gnu.so (10808453a8)
ase:    /zhome/87/8/147075/venv-name/ase/ase (version 3.23.0b1-c36115a2db)
numpy:  /zhome/87/8/147075/venv-name/lib/python3.8/site-packages/numpy (version 1.24.4)
scipy:  /zhome/87/8/147075/venv-name/lib/python3.8/site-packages/scipy (version 1.10.1)
libxc:  4.3.4
units:  Angstrom and eV
cores: 12
OpenMP: False
OMP_NUM_THREADS: 1

---
input parameters:
  kpts: 
    density: 6.0
    gamma: True
  magmoms: [[2.64162512, 0, 0], [-0.02514574, 0, 0], [-0.02514574, 0, 0]]
  mixer: 
    backend: 'pulay'
    beta: 0.05
    method: 'sum'
    nmaxold: 5
    weight: 100
  mode: 
    name: 'pw'
    ecut: 600
    qspiral: array([0.15, 0.  , 0.  ])
  parallel: 
    kpt: None
    domain: 1
    band: 1
    order: 'kdb'
    stridebands: False
    augment_grids: False
    sl_auto: False
    sl_default: None
    sl_diagonalize: None
    sl_inverse_cholesky: None
    sl_lcao: None
    sl_lrtddft: None
    use_elpa: False
    elpasolver: '2stage'
    buffer_size: None
    gpu: False
  symmetry: 
    point_group: False
    time_reversal: False
  xc: 
    name: 'LDA'

#                        
#                        
#                        
#                        
#              Br        
#                        
#                        
#        V Br            
#                        
#                        
#                        
#                        
#                        

atoms: [  # symbols, positions [Ang] and initial magnetic moments
  [  V, [   0.000000,    0.000000,    3.948555], [ 2.642,  0.000,  0.000]], # 0
  [ Br, [   1.920224,    1.108642,    5.397111], [-0.025,  0.000,  0.000]], # 1
  [ Br, [   0.000000,    2.217284,    2.500000], [-0.025,  0.000,  0.000]]] # 2

cell: [  # Ang
#     x            y            z
  [   3.840448,    0.000000,    0.000000],
  [  -1.920224,    3.325925,    0.000000],
  [   0.000000,    0.000000,    7.897111]]

periodic: [True      , True      , False     ]
lengths:  [  3.840448,   3.840448,   7.897111]  # Ang
angles:   [ 90.000000,  90.000000, 120.000000]

symmetry:
  number of symmetries: 1
  rotations: [
    [[ 1,  0,  0], [ 0,  1,  0], [ 0,  0,  1]]]

bz sampling:
  number of bz points: 144
  number of ibz points: 144
  monkhorst-pack size: [12, 12, 1]
  monkhorst-pack shift: [0.041666666666666664, 0.041666666666666664, 0.0]
  points and weights: [
    [[ -0.41666667,  -0.41666667,   0.00000000], 0.00694444],  # 0
    [[ -0.41666667,  -0.33333333,   0.00000000], 0.00694444],  # 1
    [[ -0.41666667,  -0.25000000,   0.00000000], 0.00694444],  # 2
    [[ -0.41666667,  -0.16666667,   0.00000000], 0.00694444],  # 3
    [[ -0.41666667,  -0.08333333,   0.00000000], 0.00694444],  # 4
    [[ -0.41666667,  -0.00000000,   0.00000000], 0.00694444],  # 5
    [[ -0.41666667,   0.08333333,   0.00000000], 0.00694444],  # 6
    [[ -0.41666667,   0.16666667,   0.00000000], 0.00694444],  # 7
    [[ -0.41666667,   0.25000000,   0.00000000], 0.00694444],  # 8
    [[ -0.41666667,   0.33333333,   0.00000000], 0.00694444],  # 9
    # ...
    [[  0.50000000,   0.50000000,   0.00000000], 0.00694444]]  # 143

plane wave coefficients: 3397
cutoff: 600.0 eV

spin-components: 4  # (non-collinear spins)
bands: 42
valence electrons: 27.0
spin-degeneracy: 1
dtype: complex128

memory:
    wave functions: 651_055_104  # bytes  (54_254_592 per core)

parallelization:
    kpt:    12
    domain: 1
    band:   1

density:
  components: 4
  grid points: [24 24 45]
  charge: 0.0  # |e|

potential:
  grid points: [24 24 45]

species:
  V:
    name: Vanadium
    id: 7939ce69e6bb5930668dfcf9bb1979c3
    Z: 23.0
    valence: 13
    core: 10
    charge: 0.0
    file: /zhome/86/d/1666/PAW/gpaw-setups-0.9.20000/V.LDA.gz
    compensation charges: {type: gauss,
                           rc: 0.37,
                           lmax: 2}
    cutoffs: {filter: 2.14,
              core: 0.96}
    valence states:
      #              energy  rcut
      - 3s(2.00)   -69.819   1.254
      - 4s(2.00)    -4.846   1.254
      - 3p(6.00)   -43.961   1.281
      - 4p(0.00)    -1.526   1.281
      - 3d(3.00)    -5.381   1.169
      -  d          21.830   1.169
  
    # Using partial waves for V as LCAO basis

  Br:
    name: Bromine
    id: 10a25bbcb3273ec7d8d7f6fc01d2618d
    Z: 35.0
    valence: 7
    core: 28
    charge: 0.0
    file: /zhome/86/d/1666/PAW/gpaw-setups-0.9.20000/Br.LDA.gz
    compensation charges: {type: gauss,
                           rc: 0.35,
                           lmax: 2}
    cutoffs: {filter: 1.98,
              core: 2.38}
    valence states:
      #              energy  rcut
      - 4s(2.00)   -20.306   1.111
      - 4p(5.00)    -8.003   1.111
      -  s           6.906   1.111
      -  p          19.208   1.111
      -  d           0.000   1.111
  
    # Using partial waves for Br as LCAO basis

Reference energy: -167392.690611  # eV

eigensolver:
  name: 'Davidson'
  niter: 2
  converge_bands: 'occupied'
Density mixing:
  Method: sum
  Backend: pulay
  Linear mixing parameter: 0.05
  old densities: 5
  Damping of long wavelength oscillations: 100
occupation numbers:
  Fermi-Dirac:
    width: 0.1000  # eV
  

poisson solver:
  ecut: 4800.0  # eV

xc functional:
  name: None

convergence criteria:
- Maximum [total energy] change in last 3 cyles: 0.0005 eV / valence electron
- Maximum integral of absolute [dens]ity change: 0.0001 electrons / valence electron
- Maximum integral of absolute [eigenst]ate change: 4e-08 eV^2 / valence electron
maximum number of iterations: 333

#      iter     time        total  log10-change:
#                          energy   eigst   dens
# iter:   1 12:47:37   -15.737385                  +2.6,+0.0,+0.0
# iter:   2 12:47:48   -15.742879   -0.59  -1.40   +2.7,+0.0,-0.0
# iter:   3 12:48:00   -15.606799   -1.20  -1.44   +2.8,+0.0,+0.0
# iter:   4 12:48:11   -15.626677   -1.55  -1.56   +2.9,-0.0,+0.0
# iter:   5 12:48:22   -15.665764   -2.18  -1.68   +3.0,-0.0,+0.0
# iter:   6 12:48:34   -15.655115   -2.88  -2.15   +3.0,-0.0,-0.0
# iter:   7 12:48:45   -15.654697c  -2.59  -2.26   +2.9,-0.0,-0.0
# iter:   8 12:48:56   -15.650748c  -3.54  -2.46   +2.9,-0.0,-0.0
# iter:   9 12:49:08   -15.650709c  -4.74  -2.82   +2.9,-0.0,-0.0
# iter:  10 12:49:19   -15.650616c  -4.10  -2.86   +2.9,-0.0,+0.0
# iter:  11 12:49:30   -15.650663c  -4.66  -3.29   +2.9,-0.0,+0.0
# iter:  12 12:49:42   -15.650638c  -5.90  -3.67   +2.9,-0.0,+0.0
# iter:  13 12:49:53   -15.650623c  -6.37  -3.73   +2.9,-0.0,+0.0
# iter:  14 12:50:04   -15.650619c  -6.44  -3.79   +2.9,-0.0,+0.0
# iter:  15 12:50:15   -15.650605c  -6.13  -3.84   +2.9,-0.0,-0.0
# iter:  16 12:50:27   -15.650611c  -6.26  -3.92   +2.9,-0.0,+0.0
# iter:  17 12:50:38   -15.650603c  -5.88  -3.89   +2.9,-0.0,-0.0
# iter:  18 12:50:49   -15.650603c  -7.00  -4.11c  +2.9,-0.0,+0.0
# iter:  19 12:51:00   -15.650604c  -6.94  -4.16c  +2.9,-0.0,+0.0
# iter:  20 12:51:11   -15.650604c  -6.98  -4.26c  +2.9,-0.0,-0.0
# iter:  21 12:51:22   -15.650607c  -7.22  -4.36c  +2.9,-0.0,-0.0
# iter:  22 12:51:34   -15.650607c  -7.75c -4.83c  +2.9,-0.0,-0.0
scf_steps: 22
energies:  # eV
  coulomb:          -5.988209
  zero:              0.040169
  xc:              -16.642384
  external:          0.000000
  kinetic:           6.943592
  spinorbit:         0.000000
  entropy:          -0.007551
  total:           -15.654382
  extrapolated:    -15.650607

dipole moment: [-4.985832, -8.805511, -5.224171]  # |e|*Ang

total magnetic moment: [2.944062, -0.001246, -0.000000]

local magnetic moments: [
  [ 2.611811, -0.000054, -0.000000],  # V  0
  [-0.020800,  0.015017,  0.000000],  # Br 1
  [-0.024376,  0.008000,  0.000000]]  # Br 2


Fermi level: 2.672 eV

kpt = [-0.417, -0.417, 0.000], weight = 0.007:
  Band      eig [eV]   occ [0-1]
     0       -62.090       1.000
   ...
    19        -1.897       1.000
    20        -1.818       1.000
    21        -1.764       1.000
    22        -1.630       1.000
    23        -1.526       1.000
    24         1.617       1.000
    25         2.087       0.997
    26         2.102       0.997
    27         3.316       0.002
    28         3.428       0.001
    29         3.714       0.000
    30         4.358       0.000
    31         4.407       0.000
    32         4.846       0.000
    33         4.982       0.000
    34         6.559       0.000
   ...
    41         9.173       0.000

kpt = [-0.417, -0.333, 0.000], weight = 0.007:
  Band      eig [eV]   occ [0-1]
     0       -62.090       1.000
   ...
    19        -1.977       1.000
    20        -1.918       1.000
    21        -1.719       1.000
    22        -1.685       1.000
    23        -1.449       1.000
    24         1.765       1.000
    25         2.061       0.998
    26         2.101       0.997
    27         3.248       0.003
    28         3.383       0.001
    29         3.966       0.000
    30         4.284       0.000
    31         4.357       0.000
    32         4.754       0.000
    33         4.887       0.000
    34         6.942       0.000
   ...
    41         9.368       0.000

kpt = [-0.417, -0.250, 0.000], weight = 0.007:
  Band      eig [eV]   occ [0-1]
     0       -62.090       1.000
   ...
    19        -1.989       1.000
    20        -1.961       1.000
    21        -1.796       1.000
    22        -1.613       1.000
    23        -1.414       1.000
    24         1.791       1.000
    25         2.059       0.998
    26         2.098       0.997
    27         3.204       0.005
    28         3.402       0.001
    29         3.964       0.000
    30         4.267       0.000
    31         4.356       0.000
    32         4.731       0.000
    33         4.897       0.000
    34         7.075       0.000
   ...
    41         9.299       0.000
(only showing first 3 out of 144 k-points)

Gap: 0.954 eV
Transition (v -> c):
  (s=0, k=125, n=26, [0.42, -0.00, 0.00]) -> (s=0, k=99, n=27, [0.25, -0.17, 0.00])
# Writing to Conv_V/Conv_V_2.5/gsq-03.gpw (mode='')

---

timing:  # [seconds]
  Total: 259.550  # ━━━━━━━━━━━━━━━━━━━━━━━━━━━━━━━━━━━━━━━━━━━━━━━━━━━━━━━━━
  Init:   11.052  # ━━╸
  SCF:   247.810  # ━━━━━━━━━━━━━━━━━━━━━━━━━━━━━━━━━━━━━━━━━━━━━━━━━━━━━━╸

Max RSS: 336.375  # MiB
