3
Lattice="4.165715878531158 0.0 0.0 -2.0828579392655797 3.6076157757561904 0.0 0.0 0.0 18.02743121316087" Properties=species:S:1:pos:R:3:initial_magmoms:R:1:magmoms:R:1 energy=-13.932075722616855 dipole="-2.0167815958214564e-09 1.1643562405495239e-09 1.4389905295568153e-09" magmom=4.999999215064786 free_energy=-13.932076001085159 pbc="T T F"
Mn      -0.00000000       0.00000000       9.01371561       1.00000000       4.40799120
I        2.08285794       1.20253859      10.66325035       0.10000000       0.08032672
I       -0.00000000       2.40507718       7.36418087       0.10000000       0.08032672
