3
Lattice="3.840447829815907 0.0 0.0 -1.920223914907954 3.3259253825293915 0.0 0.0 0.0 17.807063779244263" Properties=species:S:1:pos:R:3:initial_magmoms:R:1:magmoms:R:1 energy=-14.283001674904968 dipole="-5.124599520838517e-09 2.958693156168193e-09 -1.1679204783750702e-10" magmom=2.999999992791585 free_energy=-14.283002332941768 pbc="T T F"
V       -0.00000000       0.00000000       8.90353189       1.00000000       2.64162512
Br       1.92022391       1.10864179      10.35208736       0.10000000      -0.02514574
Br       0.00000000       2.21728359       7.45497642       0.10000000      -0.02514574
